ITEM: TIMESTEP
0
ITEM: NUMBER OF ATOMS
20688
ITEM: BOX BOUNDS pp pp pp
0 50.289
0 50.289
0 243.135
ITEM: ATOMS id type xu yu zu vx vy vz 
1 1 0.546568 1.89306 2.5544 0.00503513 0.00409658 -0.00641146 
2 1 3.10009 0.58431 3.4684 -0.00161898 -0.00542618 0.00321843 
3 1 0.594647 0.619791 3.41802 0.00439437 -0.00739795 -0.00321812 
4 1 1.82983 1.88561 1.7 0 0 0 
5 1 4.34515 0.565838 4.36049 0.00230346 -0.00342182 -0.00415262 
6 1 3.11693 1.87404 6.1259 -0.00347327 -0.00605274 -6.73946e-05 
7 1 1.86669 0.636958 4.33996 -0.00526711 0.000491393 0.00891176 
8 1 3.12647 0.586745 7.03295 -0.00242079 0.000827548 -0.00981549 
9 1 0.543015 0.568734 7.01893 0.0035108 0.00911277 -0.0038508 
10 1 1.77627 1.85408 5.27477 0.00101185 -0.0013899 -0.0020733 
11 1 4.35712 0.609774 7.92726 0.00621034 -0.00136006 0.00251713 
12 1 1.84978 0.556113 7.86508 -0.00274509 -0.000137251 -0.0069042 
13 1 0.551798 3.11257 3.48147 0.00573751 -0.00350882 0.000129905 
14 1 1.75081 3.12734 4.35152 -0.00568067 0.00198715 -0.00502347 
15 1 0.582344 4.36096 6.12921 0.00310763 0.00332944 0.00271474 
16 1 0.533746 1.84669 6.16274 0.000212236 -0.00471669 0.00253136 
17 1 0.543141 3.09384 6.96303 0.000649606 0.00184145 0.000242892 
18 1 1.78089 3.14411 7.84137 -0.00264076 -0.0050195 0.00264115 
19 1 3.09527 1.85678 2.60256 -0.00590307 0.00988823 0.00442973 
20 1 3.09258 4.32241 2.58456 0.00186983 0.00069316 -0.00967533 
21 1 4.33933 1.88561 1.7 0 0 0 
22 1 3.07684 3.09954 3.50717 -0.00838891 -0.00144816 -0.00351765 
23 1 4.33932 4.31401 1.70001 0 0 0 
24 1 4.35912 3.10331 4.3846 -0.00187037 -0.00306917 -0.000722887 
25 1 4.32852 1.81916 5.20662 0.00377542 0.00294322 -0.00300434 
26 1 3.10139 3.1533 7.01054 0.00370549 -0.00100919 -0.000461946 
27 1 4.33473 4.39631 5.2703 0.000634313 -0.00538747 0.00544634 
28 1 4.3315 3.14147 7.90142 -0.0013492 0.00449967 0.00778348 
29 1 0.582068 4.37622 2.57273 -0.00339847 -0.00137223 0.00411803 
30 1 1.82981 4.31402 1.70001 0 0 0 
31 1 3.06274 4.38081 6.10587 0.00387823 -0.00171542 0.00100367 
32 1 1.79384 4.39953 5.23073 -0.00424455 0.00140269 -0.00536431 
33 1 0.617481 1.79114 9.61998 -0.00271294 -0.000538202 0.00297647 
34 1 3.10758 0.580372 10.5209 0.00306759 0.000145172 -0.00272414 
35 1 0.627067 0.545576 10.5326 -0.00249088 -0.0035018 -0.00361052 
36 1 1.83114 1.87643 8.72933 -0.00519396 0.00488308 0.00263839 
37 1 4.35892 0.569652 11.4319 -0.000795102 -0.00499198 -0.00496485 
38 1 3.07399 1.87586 13.21 0.00660892 0.00365443 -0.0034012 
39 1 1.90053 0.518906 11.4194 0.00206746 -0.00607566 0.0026446 
40 1 1.83063 1.78467 12.3058 -0.0103152 -0.00166918 -0.000553114 
41 1 0.574678 3.12706 10.576 0.00266341 0.00181916 0.00199692 
42 1 1.86858 3.06403 11.4151 -0.00397522 -0.00376307 0.00746442 
43 1 0.539341 4.32788 13.2214 0.00136277 0.00313495 0.00754056 
44 1 0.560498 1.84372 13.2278 -0.00327504 -0.00202566 -0.00077685 
45 1 3.07744 1.87448 9.64961 0.00950769 0.00381568 0.00227012 
46 1 3.14799 4.39237 9.61809 -0.00159718 -0.00284267 -0.00273277 
47 1 4.30607 1.88925 8.72702 0.00392145 -0.00216264 0.0014947 
48 1 3.14978 3.14886 10.5149 0.000719635 -0.00158477 0.000161347 
49 1 4.36958 4.35786 8.76428 0.000147196 -0.00538278 0.0046318 
50 1 4.37402 3.12318 11.4267 -0.000879393 -0.00452421 0.00264751 
51 1 4.32718 1.87048 12.317 0.00302774 -0.00272479 0.000784111 
52 1 4.3701 4.40305 12.2767 -0.0100281 -0.00224191 0.000707581 
53 1 0.581607 4.35171 9.67546 -0.00126733 0.00548753 0.00267598 
54 1 1.87052 4.38556 8.74463 -0.0021813 9.66154e-05 0.0068573 
55 1 3.13584 4.34332 13.1974 0.000795283 0.00771355 -0.00491376 
56 1 1.83535 4.37131 12.3099 -0.00218337 0.00708761 0.00472837 
57 1 5.57688 1.86321 2.57991 -0.00295753 0.00380568 0.00926512 
58 1 8.10309 0.545274 3.40961 -0.000575253 0.00180313 -0.0033596 
59 1 5.59576 0.602945 3.48452 -0.00596167 0.000285234 0.0029748 
60 1 6.85873 1.88561 1.7 0 0 0 
61 1 9.34496 0.568277 4.31055 -0.00132305 0.00176668 0.000852684 
62 1 8.0828 1.87856 6.13599 0.00489458 0.00651715 0.000781955 
63 1 6.87783 0.600731 4.36779 -0.00683038 -0.0101706 -0.00730379 
64 1 8.14877 0.586597 6.97726 0.00248967 0.00443729 0.000679372 
65 1 5.58408 0.615236 7.00935 -0.00389252 -0.00569908 0.00351484 
66 1 6.87751 1.84475 5.23097 -0.00276966 0.00331724 0.00764019 
67 1 9.4221 0.609419 7.87202 -0.00390214 -0.00224432 -0.00433508 
68 1 6.84243 0.61714 7.83647 0.000636226 -0.00913049 0.00978567 
69 1 5.58647 3.10217 3.46748 0.0017814 0.00133053 -0.00138954 
70 1 6.86561 3.09193 4.35325 0.00327585 -0.000287577 0.007739 
71 1 5.53971 4.38495 6.0984 -0.00205354 0.000147413 0.000323447 
72 1 5.59536 1.83174 6.10266 0.00758313 0.00463329 0.00063963 
73 1 5.59105 3.15653 6.95089 0.00870969 -0.00828499 0.00695838 
74 1 6.82091 3.17634 7.87551 0.00793177 0.00424576 0.00833385 
75 1 8.08528 1.80517 2.52718 -0.00739539 0.00293423 0.00220735 
76 1 8.1554 4.32566 2.58072 0.00124334 -0.00109237 0.00132284 
77 1 9.36823 1.88561 1.7 0 0 0 
78 1 8.12073 3.06452 3.47346 -0.00425753 -0.00350526 0.00142804 
79 1 9.36822 4.31401 1.70001 0 0 0 
80 1 9.32184 3.09381 4.39701 0.00443513 0.00114749 -0.00173989 
81 1 9.33393 1.79717 5.202 0.000818217 0.00432181 0.000113162 
82 1 8.14095 3.13733 6.98874 -0.00368067 -0.00536756 0.00357989 
83 1 9.38172 4.39826 5.19743 -0.0101148 -0.00601823 0.00235305 
84 1 9.43434 3.14209 7.88386 -0.00210099 -0.00738067 0.00131047 
85 1 5.59069 4.34891 2.56499 0.0047604 0.00257794 0.00196144 
86 1 6.85871 4.31402 1.70001 0 0 0 
87 1 8.12844 4.37871 6.07846 -0.00394907 0.00909853 -0.000877561 
88 1 6.84555 4.35133 5.24578 0.00350658 4.39479e-05 0.00191937 
89 1 5.58013 1.8494 9.65207 0.00556852 -0.000408568 -0.00273672 
90 1 8.17497 0.646272 10.5432 -0.00911012 0.00442853 -0.0105055 
91 1 5.61922 0.599432 10.5576 -0.00708268 -0.00215931 -0.00606892 
92 1 6.85072 1.82298 8.77851 0.0063962 0.00477171 0.00143558 
93 1 9.4401 0.572158 11.4638 -0.00412455 -1.25851e-05 0.0018904 
94 1 8.17241 1.80204 13.1744 -0.00842218 0.00487058 -0.0059365 
95 1 6.90992 0.631696 11.4463 -0.000811403 -0.00816845 -0.0041469 
96 1 6.89896 1.90161 12.363 -0.00628414 -0.00470522 -0.00169063 
97 1 5.6396 3.0868 10.566 -0.00451711 -0.00475549 0.00083724 
98 1 6.87842 3.08802 11.4128 0.00672371 -0.0050368 0.00181271 
99 1 5.59705 4.38585 13.1892 0.00299661 -0.000825345 0.00417671 
100 1 5.59884 1.87651 13.1963 0.00544342 -0.00153246 -0.00219843 
101 1 8.12878 1.89826 9.60921 -0.000553305 0.00321133 0.00325651 
102 1 8.16696 4.38554 9.65843 0.00266539 0.00182015 0.00341147 
103 1 9.40349 1.91752 8.70301 0.00372138 0.00856393 -0.00390794 
104 1 8.11671 3.10182 10.5224 -0.0113747 -0.000535806 -0.000716534 
105 1 9.38828 4.34788 8.78161 -9.83262e-05 0.000568323 -0.000156435 
106 1 9.33059 3.0918 11.4116 0.00359505 0.00358874 0.0030815 
107 1 9.35359 1.85134 12.2873 -0.00572524 0.00386394 -0.000282057 
108 1 9.40738 4.29706 12.3014 -0.00721738 0.00606228 -0.00603896 
109 1 5.63352 4.35901 9.67215 0.00176513 -0.00188488 -0.00301152 
110 1 6.91502 4.45185 8.77021 -0.00159042 0.00688611 -0.00536241 
111 1 8.14239 4.33754 13.197 0.000799172 -0.00467245 -0.00393523 
112 1 6.83947 4.30092 12.3233 -0.00307618 0.00127488 0.0104136 
113 1 3.094 0.599081 14.0526 -0.00230473 0.000147538 -0.00177754 
114 1 0.5164 0.610436 14.1105 0.00578192 -0.0040471 -0.00518092 
115 1 4.37754 0.579795 14.9569 -0.0105688 -0.00563769 -0.0101028 
116 1 3.14927 1.8205 16.6865 0.000855717 -0.0041665 0.00622326 
117 1 1.85198 0.616466 14.957 0.000719763 -0.00503775 0.00212029 
120 1 1.85733 1.8332 15.8258 -0.00501012 0.000962608 -0.000286836 
124 1 0.550822 3.08077 14.1109 0.00771957 -0.00169976 0.00250821 
125 1 1.82162 3.11644 14.9885 0.00348633 -0.00999142 0.000273185 
126 1 0.563517 4.39998 16.7877 0.00413727 -0.000834591 0.000818042 
127 1 0.600577 1.9225 16.7555 -0.00118811 0.00306102 0.00230763 
130 1 3.10008 3.11563 14.1188 -0.00352329 0.00284648 -4.14509e-05 
131 1 4.3621 3.10762 14.9366 -0.00072257 -0.00792437 0.00555976 
132 1 4.37212 1.83184 15.8313 0.00602276 -0.00275047 0.000209064 
134 1 4.33423 4.39311 15.8477 -0.00184215 -0.00155646 -0.00955846 
138 1 3.02766 4.36259 16.675 -0.0100518 -0.00141835 -0.00236727 
139 1 1.77185 4.36818 15.836 0.0149457 0.0048226 -0.00645891 
145 1 8.11623 0.55453 14.0882 0.00175882 -0.00021606 0.0110408 
146 1 5.5989 0.578877 14.0872 -0.000648001 -0.00618022 0.000365889 
147 1 9.31088 0.554577 15.0271 0.00700717 -0.00986427 -0.00391595 
148 1 6.88112 0.584842 15.0185 -0.00320369 0.00120641 0.00355784 
150 1 6.85166 1.87859 15.8968 0.00573744 0.0034412 -0.00476517 
151 1 5.64626 3.11405 14.0754 0.00173289 -0.00612796 0.00843929 
152 1 6.85703 3.11107 14.996 0.00195255 -0.000689529 0.00586403 
153 1 5.57311 4.35841 16.7938 -0.00668444 -0.0055314 4.49895e-05 
154 1 5.59535 1.8599 16.7705 0.00043884 0.00366116 0.00161526 
156 1 8.13236 3.09252 14.0955 -0.000468965 -0.00303674 0.00734721 
157 1 9.39369 3.07309 14.9187 0.00434493 0.00578339 -0.00101883 
158 1 9.34034 1.87422 15.8295 0.00122477 -0.0059482 -0.00296622 
159 1 9.37861 4.28816 15.8182 0.0080431 0.00192032 0.00707286 
160 1 6.83119 4.32486 15.8983 -0.00516777 0.00175315 0.00585269 
163 2 8.10573 2.28804 16.6405 0.00255994 -0.00762762 0.00215523 
164 2 8.08293 3.91644 16.6317 0.00741785 0.00246402 -0.00322091 
169 1 10.6255 1.87958 2.5747 0.00248578 -0.00152193 -0.00992951 
171 1 10.594 0.552057 3.40572 -0.00317935 0.00565869 0.00067829 
172 1 11.8876 1.88561 1.7 0 0 0 
175 1 11.8533 0.626712 4.3172 0.00118288 -0.00414822 0.0025876 
177 1 10.6342 0.533866 6.96312 0.00798011 0.000397167 -0.0053413 
178 1 11.8933 1.84784 5.21707 -0.00347802 -0.00638651 -0.00786835 
180 1 11.9013 0.589545 7.83245 0.000238785 -0.00443116 -0.00609794 
181 1 10.6066 3.10984 3.45586 -0.00765947 0.00358951 0.00481698 
182 1 11.874 3.13241 4.34392 0.000344904 -0.00308855 -9.93167e-05 
183 1 10.6523 4.36278 6.05276 0.00109431 0.00590748 0.00529128 
184 1 10.6314 1.79779 6.061 -0.00896306 0.00239861 -0.00103495 
185 1 10.6352 3.11231 6.97093 0.00201534 -0.00191042 0.0035627 
186 1 11.8611 3.1023 7.83436 -0.00323239 0.000615693 0.00483293 
197 1 10.5938 4.31812 2.5552 0.00213042 0.000720926 -0.00806227 
198 1 11.8876 4.31402 1.70001 0 0 0 
200 1 11.9218 4.39594 5.21136 0.00453561 -0.00112048 -0.00188987 
201 1 10.6186 1.8406 9.62758 0.00780353 0.00278696 -0.0128225 
203 1 10.6569 0.542526 10.5405 0.00123076 0.000859065 0.00195987 
204 1 11.888 1.83621 8.71577 -0.00565849 -0.00470013 -0.0067085 
207 1 11.9004 0.566869 11.4117 -0.00714548 0.00228791 0.0030803 
208 1 11.8774 1.8069 12.2573 -0.00155408 0.00183182 0.00107278 
209 1 10.6073 3.06801 10.5711 0.00118343 -0.000977182 0.013971 
210 1 11.893 3.09281 11.4135 0.00514047 -0.00904383 0.002422 
211 1 10.6465 4.33813 13.1906 0.000519679 -0.00679955 0.00309295 
212 1 10.6415 1.8539 13.1537 -0.00106444 0.0013854 0.000704965 
221 1 10.6395 4.33532 9.66447 0.00557545 0.00100635 -0.000693725 
222 1 11.8651 4.33662 8.7558 -0.00854162 -0.00602561 -0.0101928 
224 1 11.9183 4.33276 12.2997 -0.000983183 -0.00418272 0.00840893 
282 1 10.6099 0.568348 14.0867 0.0105217 0.00662435 0.00424166 
285 1 11.85 0.558288 14.9802 -0.00696739 0.000161374 0.00397196 
288 1 11.8297 1.82471 15.8381 -0.00182803 0.00225999 0.00627365 
292 1 10.6508 3.07876 14.0309 -0.0108753 0.00709852 -0.0016258 
293 1 11.8838 3.09382 14.9082 -0.00597465 -0.000166205 -0.00140991 
294 1 10.6281 4.35528 16.7047 0.000364786 0.00625251 0.00162568 
295 1 10.5898 1.84702 16.8015 -0.0086998 -0.00278107 -0.00100447 
307 1 11.8824 4.29546 15.8107 0.000550266 -0.00227735 -0.00307118 
841 1 0.561162 6.89432 2.55484 -0.00629837 -0.001255 -0.00307674 
842 1 3.10849 5.62698 3.45427 -0.00258883 -0.000329252 0.00109353 
843 1 0.603452 5.61892 3.41626 -0.00547695 -0.00280543 -0.00258329 
844 1 1.82983 6.91451 1.7 0 0 0 
845 1 4.33238 5.63872 4.30674 0.00153887 0.00535062 -0.000347118 
846 1 3.05044 6.90329 6.08962 -0.0107092 0.000741463 -0.00404741 
847 1 1.79917 5.6447 4.31661 0.00254926 -0.00573407 -0.00250855 
848 1 3.02966 5.65333 7.0297 0.00331046 -0.000317196 0.00399049 
849 1 0.503047 5.62003 7.02234 0.00368261 -0.000506875 0.00201724 
850 1 1.82025 6.90137 5.22196 0.00346346 -0.00294042 0.00208459 
851 1 4.33971 5.58236 7.86216 -0.00622943 -0.00384817 -0.0011117 
852 1 1.79077 5.66997 7.87771 0.00211868 0.00762231 -0.000479963 
853 1 0.552451 8.13952 3.44358 0.000560311 -0.00423391 0.000855377 
854 1 1.82675 8.11178 4.29648 0.00374474 0.000651034 -0.00276048 
855 1 0.562696 9.38592 6.04042 0.00244442 -0.00414408 -0.00509288 
856 1 0.530614 6.88935 6.1405 -0.00304206 -0.0128268 -0.00294961 
857 1 0.5266 8.12914 7.02297 0.00146702 -0.00877242 -0.00162764 
858 1 1.81527 8.147 7.88153 -0.00448848 0.00405548 0.00617751 
859 1 3.08392 6.8439 2.55772 -0.00194005 -0.00312033 0.00211108 
860 1 3.09737 9.32853 2.58928 0.00789502 0.00127578 -0.00413791 
861 1 4.33933 6.91451 1.7 0 0 0 
862 1 3.10388 8.07471 3.44813 -0.000882191 -0.00527222 0.00123081 
863 1 4.33932 9.34291 1.70001 0 0 0 
864 1 4.34696 8.16238 4.32899 -0.00234098 0.00481156 0.00172172 
865 1 4.32226 6.92249 5.19098 0.00112 0.00516587 -0.00541977 
866 1 3.08321 8.14384 6.96106 0.000349785 0.00192184 -0.00137287 
867 1 4.36285 9.41822 5.26064 -0.00494536 0.00595039 -0.00202539 
868 1 4.34607 8.17778 7.79924 -0.00386994 0.000341186 0.00540224 
869 1 0.564391 9.4098 2.55421 0.00845302 -0.000986009 -0.00292806 
870 1 1.82981 9.34292 1.70001 0 0 0 
871 1 3.07984 9.40007 6.07662 0.00528441 0.00458543 -0.00679224 
872 1 1.82642 9.38169 5.20554 0.00121983 0.00415696 -0.00357825 
873 1 0.576641 6.8328 9.64009 0.000452291 0.000344883 0.00513645 
874 1 3.052 5.63232 10.4845 -0.00253108 -0.00735069 -0.00544061 
875 1 0.533085 5.57942 10.5356 -0.00146437 0.000553951 -0.00270516 
876 1 1.79923 6.86956 8.71769 -0.00562729 -0.000505678 0.00198451 
877 1 4.33428 5.64322 11.4042 -0.00685925 -0.0026252 -0.00343037 
878 1 3.05475 6.86042 13.1662 -0.00119755 -0.00322609 -0.00156999 
879 1 1.79999 5.59446 11.3537 0.00522067 -0.000517115 0.00283002 
880 1 1.7833 6.81805 12.2808 0.00920609 -0.00299483 -0.000722975 
881 1 0.600557 8.11385 10.5385 0.000882648 -0.00195017 -0.00389436 
882 1 1.79325 8.07887 11.3888 -0.00168562 0.00177414 -2.4169e-05 
883 1 0.585433 9.40255 13.1756 -0.00575245 -0.000294697 0.000606337 
884 1 0.544084 6.85452 13.1783 -0.00369532 -0.00320532 0.000913718 
885 1 3.06392 6.85669 9.54164 0.00242298 -0.0130854 -0.00732736 
886 1 3.08962 9.34681 9.60659 0.00354368 0.00682993 0.00815026 
887 1 4.39055 6.89886 8.69486 -0.00362475 -0.000769656 0.00113909 
888 1 3.06257 8.10536 10.5107 0.00622737 0.000226245 -0.000150152 
889 1 4.32857 9.40872 8.7331 0.00416592 -0.000913885 0.00828825 
890 1 4.31069 8.10251 11.4442 -0.0121891 -0.00148303 0.00313411 
891 1 4.31157 6.85768 12.3345 -0.00492361 -8.98945e-05 -0.00151917 
892 1 4.29451 9.33918 12.318 0.000281437 0.00906855 0.000890027 
893 1 0.514126 9.40501 9.67538 -0.00515168 -0.000983923 -0.00730426 
894 1 1.79627 9.45047 8.7571 -0.00221182 0.0014711 -0.00591755 
895 1 3.05908 9.37937 13.1848 -0.004148 -0.000207407 0.002387 
896 1 1.82991 9.33576 12.2681 0.000588095 8.22974e-05 -0.00431019 
897 1 5.57055 6.91409 2.56553 -0.00627545 0.0142563 0.00772552 
898 1 8.09434 5.66236 3.42173 0.00777165 -0.00134911 -0.00723741 
899 1 5.59429 5.6405 3.40961 0.00374381 0.00184862 0.00676514 
900 1 6.85873 6.91451 1.7 0 0 0 
901 1 9.32609 5.61292 4.31061 -0.00209589 0.00645167 0.000821156 
902 1 8.10403 6.86854 6.1053 0.000638612 0.00337812 -0.00493383 
903 1 6.82356 5.60902 4.336 0.00230506 0.00479123 0.00111119 
904 1 8.12712 5.63486 6.99332 -0.00642344 -0.0024787 -0.00729396 
905 1 5.56783 5.62901 6.96884 -0.00418956 -0.00202693 -0.000455633 
906 1 6.85632 6.89042 5.19239 0.00231765 -0.00107849 -0.00653715 
907 1 9.35838 5.60242 7.90642 -0.00651551 0.00406458 0.00363952 
908 1 6.86292 5.65857 7.89759 0.000210167 -0.00603204 -0.00522015 
909 1 5.60367 8.19389 3.45899 0.00520355 0.00115131 -0.00478856 
910 1 6.86757 8.15915 4.34829 0.00188843 0.00175353 0.00168065 
911 1 5.63372 9.37391 6.11486 -9.40511e-05 0.00512394 -0.000139551 
912 1 5.60352 6.8777 6.05504 -0.000359352 -0.000630086 -0.00173515 
913 1 5.59539 8.11313 6.96496 -0.00608011 0.00250209 -0.00914386 
914 1 6.87486 8.06932 7.89961 -0.00821847 -0.00313411 0.000918472 
915 1 8.0933 6.89742 2.5493 0.000681812 -0.00522106 -0.00563114 
916 1 8.10762 9.38535 2.55305 -6.71799e-05 -0.000593955 0.00178536 
917 1 9.36823 6.91451 1.7 0 0 0 
918 1 8.15164 8.14905 3.49952 0.00731721 0.00831651 0.00415636 
919 1 9.36822 9.34291 1.70001 0 0 0 
920 1 9.38407 8.119 4.35682 0.00792069 -0.00770574 -0.00917575 
921 1 9.40291 6.82233 5.21912 -0.00469223 0.00208695 -0.00619063 
922 1 8.07923 8.10348 7.00288 0.00546699 -0.00462069 -0.00813667 
923 1 9.38411 9.35724 5.24321 -0.00271596 0.001513 -0.00114089 
924 1 9.34203 8.11632 7.8867 -0.00541169 0.00213581 -0.00960012 
925 1 5.60431 9.40514 2.57041 -0.00251621 0.00478433 0.00122352 
926 1 6.85871 9.34292 1.70001 0 0 0 
927 1 8.13239 9.40486 6.15663 0.00430707 -0.00666062 0.011244 
928 1 6.8909 9.40039 5.26054 0.00437365 -0.00477546 0.00382044 
929 1 5.65401 6.93341 9.65943 -0.003318 0.0120469 0.00186365 
930 1 8.14855 5.64818 10.5543 0.00139173 0.00267344 -0.00242467 
931 1 5.63361 5.6668 10.5325 0.00296781 0.00302668 0.0103928 
932 1 6.93717 6.86518 8.87788 -0.00726192 -0.000615631 0.00235797 
933 1 9.40304 5.56154 11.4013 -0.000499659 0.0042242 0.00244861 
934 1 8.11711 6.89882 13.239 -0.00150959 0.000974474 0.00807282 
935 1 6.88182 5.59658 11.4501 -0.00561259 -0.0124581 0.00739063 
936 1 6.84824 6.87809 12.2897 -0.00453451 0.00106267 0.00361493 
937 1 5.61078 8.14344 10.5351 0.00203345 0.00241402 -0.000488595 
938 1 6.83665 8.11525 11.4554 -0.00736503 0.00111977 -0.00797651 
939 1 5.54485 9.40817 13.2168 -0.00340059 -0.00883304 0.00118549 
940 1 5.59601 6.85097 13.1799 -0.00127594 -0.00130039 -0.00536074 
941 1 8.17538 6.8884 9.68435 0.00108901 0.00329077 0.00144199 
942 1 8.11324 9.37148 9.66254 -0.00697185 -0.0018144 -0.00765131 
943 1 9.37711 6.90105 8.7348 0.00510515 -0.0011248 -0.00348877 
944 1 8.11937 8.11844 10.5355 -0.00652908 0.000494002 -0.00455602 
945 1 9.37569 9.41194 8.75373 -0.00809489 -0.00331415 0.0071396 
946 1 9.38038 8.1116 11.4239 -0.00321807 0.00054747 -0.00226148 
947 1 9.36312 6.8156 12.3252 0.000253042 -0.00505118 0.0024376 
948 1 9.36829 9.35943 12.311 0.00334254 -0.000756095 -0.00550882 
949 1 5.58531 9.41691 9.67387 -0.00393221 -0.00523434 0.00596868 
950 1 6.84784 9.41053 8.76193 -0.00547135 0.00144047 -0.00426262 
951 1 8.07824 9.3247 13.1957 0.000897937 0.00635261 -0.00610544 
952 1 6.82461 9.382 12.3463 -0.000417461 -0.0010408 0.00871104 
953 1 3.10097 5.5887 14.0755 0.00422714 0.00206491 -0.00274021 
954 1 0.491448 5.61588 14.0993 0.00269908 0.0129293 -0.00200324 
955 1 4.38971 5.5882 14.9386 0.00179169 0.0016698 0.000471637 
956 1 3.03364 6.84536 16.662 -0.00394949 0.00777735 0.00481344 
957 1 1.78541 5.5828 14.9681 -0.00611288 -0.00361141 0.00209162 
960 1 1.79158 6.8576 15.8231 -0.00457402 -0.000993332 0.00262034 
964 1 0.579512 8.11272 14.0558 -0.00324222 0.00552334 0.00503932 
965 1 1.79299 8.1124 14.952 0.00533413 0.00770155 -0.00151596 
966 1 0.525788 9.44519 16.7678 0.000829419 -0.000728389 -0.00690224 
967 1 0.531047 6.90167 16.7308 0.00282553 -0.00030519 -0.00559286 
970 1 3.07307 8.12176 14.0311 0.00677555 0.000522333 -6.47184e-06 
971 1 4.26806 8.11906 14.9706 0.000517761 -0.00875616 0.0006127 
972 1 4.3076 6.87361 15.8032 0.000405969 -0.00265932 -0.00142126 
974 1 4.31074 9.40562 15.8221 -0.00407599 0.00221822 0.00655223 
978 1 3.04798 9.39809 16.696 0.00394171 -0.000116935 0.00480163 
979 1 1.75687 9.32766 15.8385 0.00331588 0.00168925 -0.00322913 
985 1 8.12123 5.60062 14.1301 0.00090304 0.00328579 0.00124355 
986 1 5.63324 5.65244 14.0885 0.00706835 0.0092891 0.00134672 
987 1 9.33782 5.61209 15.0255 -7.84007e-05 -0.00209206 -0.0006444 
988 1 6.81888 5.59534 15.002 -0.00938676 -0.00337934 0.00119768 
990 1 6.77237 6.90733 15.8992 0.00536895 -0.0034263 0.00646184 
991 1 5.5615 8.15057 14.0416 0.00235599 0.00582854 -0.0116751 
992 1 6.79332 8.14238 14.9095 -0.00172447 -0.00667819 0.000240882 
993 1 5.56986 9.35558 16.7699 -0.00315519 0.00780882 -0.000118479 
994 1 5.55976 6.87246 16.7892 -0.00287419 0.000980856 0.000326382 
996 1 8.09074 8.1224 14.1022 0.0011075 -0.000792958 0.000541225 
997 1 9.38113 8.11098 14.9587 0.00465125 -0.00217386 -0.0072127 
998 1 9.36629 6.88133 15.915 -0.00436234 -0.00300586 -0.00530916 
999 1 9.31676 9.30358 15.8885 -0.00232102 0.00227901 -0.00253606 
1000 1 6.81629 9.32611 15.8934 0.00150072 -0.001217 -0.00410044 
1003 2 8.07642 7.24987 16.6945 0.00379342 0.000215598 0.00673581 
1004 2 8.08079 8.90978 16.7142 -0.00227325 0.0039166 -0.00362622 
1009 1 10.58 6.88612 2.53961 -0.00851846 0.00121089 0.00218085 
1011 1 10.5771 5.59666 3.43203 -0.00115466 -0.00333047 -0.00678265 
1012 1 11.8876 6.91451 1.7 0 0 0 
1015 1 11.831 5.67097 4.3164 -0.00454627 -0.00375994 0.00461811 
1017 1 10.6342 5.60103 7.02736 0.00134781 0.00193699 -0.00915166 
1018 1 11.8426 6.90947 5.22773 -0.00113318 -0.00364683 -0.00457662 
1020 1 11.9315 5.62559 7.84388 0.000359866 0.00179831 -0.00843542 
1021 1 10.6206 8.11273 3.43397 -4.11965e-05 0.0014753 -0.00223437 
1022 1 11.8525 8.17184 4.35385 0.00151451 0.0015887 -0.00358967 
1023 1 10.6274 9.38786 6.12655 -0.00145867 0.0036745 -0.00390413 
1024 1 10.6473 6.85602 6.18587 -0.000557637 -0.00119639 0.00510205 
1025 1 10.634 8.13271 7.02642 0.00224609 0.00329813 -0.0087203 
1026 1 11.8918 8.15551 7.88141 0.00528044 0.00727634 -0.000921221 
1037 1 10.6194 9.36806 2.55981 -0.0021276 -0.00727935 -0.000622783 
1038 1 11.8876 9.34292 1.70001 0 0 0 
1040 1 11.8837 9.40199 5.21897 -0.00221922 -0.00248787 -0.00594248 
1041 1 10.6277 6.86623 9.61736 -0.00455596 0.00244773 0.00277661 
1043 1 10.6299 5.58139 10.4917 -0.00141176 0.00864216 -0.00505033 
1044 1 11.9447 6.89734 8.74332 -0.00771705 0.00575949 -0.00655509 
1047 1 11.9227 5.58118 11.4344 0.000949246 0.00383772 0.00528346 
1048 1 11.9112 6.86849 12.3446 -0.0142662 0.000835681 0.00504241 
1049 1 10.5927 8.1361 10.5276 -0.000355997 0.00247718 0.00519254 
1050 1 11.8579 8.10301 11.398 -0.0027689 -0.00143695 -0.00425162 
1051 1 10.6398 9.31038 13.1775 -0.0040544 -0.00528561 0.00115263 
1052 1 10.5923 6.84086 13.2162 -0.00519512 -0.000570041 -0.00946692 
1061 1 10.6181 9.38535 9.6389 0.00997048 -0.000242766 0.00359654 
1062 1 11.8592 9.45269 8.72007 0.00358952 -0.00330196 -0.00359357 
1064 1 11.8768 9.36072 12.2924 0.00809668 0.00591737 -0.00163518 
1122 1 10.575 5.57374 14.1267 0.000316135 0.00215283 0.00585837 
1125 1 11.8654 5.58481 15.0258 0.000436166 0.00261206 0.000416855 
1128 1 11.88 6.86434 15.8962 -0.000644865 -0.000477195 -0.00202473 
1132 1 10.6452 8.07725 14.1016 0.00718171 -0.0026738 0.00369034 
1133 1 11.9106 8.06859 14.9564 0.0014041 -0.00870869 0.00684389 
1134 1 10.5877 9.37137 16.7338 -0.00490904 -0.00248582 -0.0106076 
1135 1 10.6184 6.83029 16.817 0.00603929 -0.00118283 0.00212266 
1147 1 11.836 9.39293 15.7685 0.010084 -0.00438916 -0.0045919 
1681 1 0.547555 11.9293 2.65349 -0.000140224 -0.00652647 -0.00185648 
1682 1 3.08699 10.6532 3.43675 0.00225624 -0.00219997 0.00141796 
1683 1 0.552946 10.6613 3.47325 0.00174707 -0.00346788 -0.00578374 
1684 1 1.82983 11.9434 1.7 0 0 0 
1685 1 4.35909 10.6283 4.39561 -8.56839e-05 -0.00492074 0.00337981 
1686 1 3.13203 11.9126 6.10674 0.00316712 0.00257465 0.00526853 
1687 1 1.86995 10.6164 4.34991 -0.00104323 -0.00346003 -0.00459141 
1688 1 3.02214 10.6334 6.97027 -0.00666631 0.00316645 0.00242064 
1689 1 0.514071 10.6195 6.9905 -0.0039674 0.0015972 0.0033526 
1690 1 1.86803 11.9353 5.24419 0.00126038 0.00277404 0.00272782 
1691 1 4.30398 10.609 7.86104 -0.00176783 0.00339503 -0.00271726 
1692 1 1.77459 10.6298 7.83719 -0.00107901 -0.00234467 -0.000900497 
1696 1 0.535707 11.873 6.11623 0.00223115 0.00217889 0.00336799 
1699 1 3.03412 11.9102 2.58858 -0.00563205 0.00561144 0.00143666 
1701 1 4.33933 11.9434 1.7 0 0 0 
1705 1 4.34883 11.8819 5.17955 0.000114652 0.00123106 -0.00127691 
1713 1 0.517335 11.9086 9.65945 0.000943982 -0.00371495 -0.00884305 
1714 1 3.07752 10.6061 10.5041 -0.00162284 -0.000823575 -0.00443123 
1715 1 0.551436 10.6513 10.5605 -0.00316934 -0.000445586 6.80937e-05 
1716 1 1.79179 11.9183 8.72484 0.000697115 -0.00179934 -0.00084407 
1717 1 4.30476 10.6335 11.3793 -0.00848313 0.00559553 0.0037863 
1718 1 3.09375 11.9008 13.1873 0.00340862 0.000592952 -0.000382567 
1719 1 1.82333 10.6319 11.4305 -0.00473248 -0.000732345 0.000931571 
1720 1 1.84916 11.8802 12.3313 0.000695374 -0.00178048 -0.00249995 
1724 1 0.513702 11.8543 13.1775 -0.00355221 -0.00079592 0.00836279 
1725 1 3.09194 11.8917 9.62835 -0.00233649 -0.00513945 0.00745131 
1727 1 4.35312 11.9112 8.76397 0.00482325 -0.000487022 -0.0012512 
1731 1 4.30769 11.882 12.2782 -0.00260147 -0.00139653 0.00888949 
1737 1 5.60821 11.9353 2.59184 -0.00252 0.00330894 0.00834979 
1738 1 8.14421 10.6763 3.4839 0.00119857 -0.00222146 -0.00572211 
1739 1 5.63188 10.6671 3.46729 0.00332263 -0.00133218 -7.27143e-05 
1740 1 6.85873 11.9434 1.7 0 0 0 
1741 1 9.43127 10.6387 4.32767 -0.00219282 0.00595481 -0.00163154 
1742 1 8.07227 11.8649 6.13641 0.0053718 0.00191253 0.00179629 
1743 1 6.87809 10.6357 4.35336 -0.00187423 -0.00122495 0.00170269 
1744 1 8.0981 10.6301 6.96885 0.00432911 0.00227668 0.00147472 
1745 1 5.56695 10.5809 6.99752 0.00441266 0.00341869 0.000887182 
1746 1 6.82471 11.8714 5.2373 -0.00059519 -0.00415461 0.00184538 
1747 1 9.36744 10.6314 7.85776 0.00421469 0.00284141 0.00654767 
1748 1 6.84134 10.6418 7.87751 -0.00421887 0.0046196 0.000593094 
1752 1 5.57016 11.9126 6.05658 0.017346 0.00034727 0.00655058 
1755 1 8.12074 11.9226 2.59274 0.000864532 0.000805348 -0.00227395 
1757 1 9.36823 11.9434 1.7 0 0 0 
1761 1 9.3407 11.9423 5.19233 0.00195008 -0.000733988 0.00301908 
1769 1 5.55858 11.9265 9.62911 0.00655549 0.00638401 -0.00466073 
1770 1 8.10424 10.6321 10.553 -0.0101484 0.00175293 0.00103509 
1771 1 5.61168 10.6727 10.5 -0.00563595 -0.00102625 -0.000564966 
1772 1 6.79373 11.8911 8.76394 -0.0031335 -0.00333144 -4.09258e-05 
1773 1 9.37744 10.6498 11.4433 0.0128922 -0.0120359 -0.00344929 
1774 1 8.0898 11.8682 13.2113 -0.00301814 -0.00902087 0.0101461 
1775 1 6.91801 10.6428 11.4335 -0.00471819 -0.00220541 0.000851047 
1776 1 6.85938 11.8915 12.3247 0.00047729 -0.000236313 -4.19546e-05 
1780 1 5.57044 11.864 13.154 0.00106549 0.00121006 0.00188457 
1781 1 8.06987 11.8756 9.68146 0.00285884 -0.00583144 -0.00689842 
1783 1 9.30981 11.9168 8.70533 0.00214422 -0.00771626 0.00364721 
1787 1 9.30384 11.8744 12.3125 -0.00601108 -0.000164099 0.00193965 
1793 1 3.08935 10.6535 14.0687 -0.00123155 0.00462387 0.00776819 
1794 1 0.554661 10.6109 14.0797 -0.00783813 0.0043528 0.000148878 
1795 1 4.33575 10.6503 14.9512 -0.00373725 0.00207533 0.00245492 
1796 1 3.09332 11.93 16.6822 0.00328794 0.00106856 0.00045469 
1797 1 1.81588 10.6355 14.9451 -0.0017432 0.0020282 0.00378338 
1800 1 1.81592 11.8912 15.7879 0.00174036 0.0066676 0.00156339 
1807 1 0.570333 11.9076 16.746 -0.00114029 -0.00129168 0.00256328 
1812 1 4.30331 11.9128 15.8328 -0.00221304 0.00334564 -0.00496791 
1825 1 8.13784 10.6268 14.1541 -0.0102046 -0.0041411 -0.00142619 
1826 1 5.60797 10.6371 14.0844 -0.00635331 0.00249421 0.00502628 
1827 1 9.34009 10.6593 15.0226 0.00411593 0.0083631 0.00343212 
1828 1 6.83925 10.6109 15.045 -0.00219184 -0.00112391 0.00208827 
1830 1 6.82703 11.9425 15.8444 0.0105817 0.00281094 -0.0047921 
1834 1 5.57505 11.9679 16.7574 0.00145433 2.84954e-06 -0.000972326 
1838 1 9.34641 11.9442 15.9308 0.0062069 -0.000742256 -0.00256773 
1849 1 10.6521 11.9057 2.54366 0.00127061 -0.00244534 -0.00063528 
1851 1 10.619 10.6019 3.40841 -0.00443498 0.00210713 0.00958022 
1852 1 11.8876 11.9434 1.7 0 0 0 
1855 1 11.846 10.5921 4.28674 -0.00594598 -0.00251264 -0.00130661 
1857 1 10.5979 10.6859 6.97293 0.000427314 -0.00324383 -0.00760944 
1858 1 11.8568 11.8466 5.20267 0.00708825 0.00430989 0.00902407 
1860 1 11.8207 10.6871 7.82607 0.00102857 0.00173718 -0.0011018 
1864 1 10.5809 11.9247 6.08488 -0.00276725 -0.00417784 -0.000880055 
1881 1 10.6059 11.9189 9.55486 0.00732916 0.00295528 -2.5515e-05 
1883 1 10.6341 10.6416 10.5331 0.00687112 -0.000769376 -0.00416995 
1884 1 11.8634 11.8973 8.71558 0.00354836 0.00191117 -0.00348153 
1887 1 11.8944 10.6322 11.41 -0.000768664 -0.000323501 -0.00386484 
1888 1 11.8529 11.8854 12.3102 0.00335559 -0.00160052 -0.00482285 
1892 1 10.5708 11.8295 13.2081 0.0042187 -0.00106484 -0.00169712 
1962 1 10.5981 10.5815 14.0702 0.00463237 0.00676368 -0.000232314 
1965 1 11.814 10.6535 14.9242 -0.000412527 -0.00344922 -0.00443634 
1968 1 11.8194 11.8846 15.8046 -0.000685165 -0.00576649 0.00623749 
1975 1 10.6042 11.9128 16.7684 -0.00122299 0.00104474 -0.00488698 
1843 2 8.05277 12.3661 16.6507 -0.0017231 0.00599836 0.00670504 
3512 1 6.85165 23.2316 14.9439 -8.01323e-05 0.00537265 -0.000688259 
3513 1 5.61903 24.4734 16.8679 0.00601589 -0.000104731 0.00301223 
3514 1 5.59122 21.9686 16.7555 -0.00632258 -0.00202401 -0.00290042 
3516 1 8.16876 23.1987 14.0488 -9.55875e-06 0.00196598 -0.000266032 
3519 1 9.41082 24.3986 15.9087 0.00524919 -0.000579088 -0.0040498 
3518 1 9.34815 21.977 15.9171 6.52906e-05 -0.00741034 -0.00110665 
3517 1 9.44459 23.221 14.928 -0.00181322 0.00397571 -0.00172768 
3520 1 6.83662 24.4242 15.9017 -0.00727599 0.0049449 0.00186627 
3523 2 8.1052 22.3848 16.7347 -0.00169518 0.00160096 -0.00191551 
3524 2 8.12676 24.0256 16.7154 0.00491356 0.00301248 0.00119526 