ITEM: TIMESTEP
40000
ITEM: NUMBER OF ATOMS
20688
ITEM: BOX BOUNDS pp pp pp
0 50.289
0 50.289
0 243.135
ITEM: ATOMS id type xu yu zu vx vy vz 
2 1 1.0966 0.531392 3.48132 0.00147673 0.00221956 0.00266731 
1059 1 12.3573 6.84021 12.3325 0.00522871 -0.00648898 0.00122372 
5 1 2.40636 0.552664 4.3555 -0.00604846 -0.0031483 -0.00447078 
6 1 1.05702 1.88967 6.09272 0.00413767 -0.00550442 -0.00290854 
8 1 1.08287 0.643439 6.97158 0.00277985 0.00621798 -0.00559247 
11 1 2.33092 0.588205 7.87336 -0.00490338 -0.00822982 0.00389715 
19 1 1.05088 1.82302 2.58465 0.00446058 -0.00306934 0.000463496 
20 1 1.07315 4.31381 2.53422 0.00505451 -0.000169914 0.00162289 
21 1 2.33933 1.88561 1.7 -0.000137206 0 0 
22 1 1.08046 3.08456 3.50011 0.00119194 -0.00252954 0.00579473 
23 1 2.33932 4.31401 1.70001 0.000323081 0 0 
24 1 2.31132 3.1329 4.36514 -0.00348686 -0.000715116 0.00233626 
25 1 2.31344 1.85169 5.24489 0.00257562 0.00477558 -0.00924501 
26 1 1.08029 3.18753 6.97729 0.003531 -0.000479215 0.00145099 
27 1 2.30917 4.41142 5.2056 0.00542005 -0.00913684 -0.00422985 
28 1 2.35852 3.12372 7.87242 0.00415547 0.00595086 0.00700601 
31 1 1.04844 4.41676 6.0613 0.00247033 0.000277736 0.00485758 
195 1 12.4121 4.33374 5.23967 -0.0018912 0.00463007 0.00500228 
34 1 1.08722 0.616518 10.5892 0.000330951 -0.000993365 -0.00392427 
37 1 2.37716 0.612753 11.4513 -0.00380348 0.00205413 -0.00140835 
38 1 1.11294 1.82413 13.2663 -0.00399081 -6.03137e-05 -0.000178093 
219 1 12.3661 1.78782 12.241 -0.00628491 0.011516 0.00219862 
45 1 1.10325 1.85443 9.65112 -0.00444418 -0.00365172 -0.0024993 
46 1 1.12556 4.38272 9.65371 -0.00049827 -0.00433915 0.00228433 
47 1 2.34444 1.84094 8.75074 0.00526972 0.00377377 -0.00561067 
48 1 1.11738 3.14935 10.5288 -0.00104216 0.0009116 -0.00268147 
49 1 2.3633 4.4019 8.76021 -6.74044e-05 -0.00217998 0.000290466 
50 1 2.32423 3.10512 11.4434 -0.00733913 0.00146522 -0.00474842 
51 1 2.33083 1.87308 12.3829 0.00745999 0.00605601 0.000550021 
52 1 2.35101 4.42204 12.3492 0.00142994 -0.00391364 0.00564273 
55 1 1.02933 4.3674 13.2035 0.00151688 0.00236975 -0.00445571 
57 1 3.62631 1.87327 2.55983 0.00681381 -0.00373095 0.000579088 
58 1 6.17631 0.577669 3.49103 0.00144873 0.00633967 -0.0007501 
59 1 3.59461 0.593315 3.41486 -0.012011 0.00559098 -0.00355754 
60 1 4.85873 1.88561 1.7 -0.000128742 0 0 
61 1 7.45675 0.609268 4.40743 -0.000905445 0.00194063 0.0050778 
62 1 6.03923 1.88163 6.12123 -0.00350661 -0.00223774 -0.0103941 
63 1 4.88974 0.568292 4.33131 0.00210009 0.00312772 0.00133111 
64 1 6.09356 0.558026 7.04172 0.00195048 -0.00351271 0.00409643 
65 1 3.60838 0.556619 6.9608 -0.00353045 0.00214835 -0.000481337 
66 1 4.78917 1.78318 5.22955 0.000488239 0.00443523 -0.00636873 
67 1 7.29533 0.557723 7.92438 -0.00674733 0.00367316 0.00686939 
68 1 4.8607 0.623765 7.94385 -0.000547814 0.00255373 -0.00250649 
69 1 3.57769 3.11257 3.46511 0.00527659 0.00521103 0.0017768 
70 1 4.84276 3.08106 4.37492 0.0035706 -0.0033257 -0.000301175 
71 1 3.58614 4.3695 6.13007 -0.00211701 -0.000562098 0.000922383 
72 1 3.53449 1.85631 6.11329 0.000542855 0.00517702 0.000934044 
73 1 3.6144 3.08221 7.00424 0.00315738 -0.000996739 -0.00301914 
74 1 4.84235 3.11562 7.91375 -0.00151167 0.00450836 -0.0018096 
75 1 6.07316 1.841 2.57582 -0.000159328 0.00332237 0.00774664 
76 1 6.07299 4.38777 2.5619 -0.0030731 -0.00614053 -0.000344447 
77 1 7.36823 1.88561 1.7 -0.000632889 0 0 
78 1 6.04531 3.12001 3.50547 -0.003093 -0.00447369 0.000916302 
79 1 7.36822 4.31401 1.70001 -0.000367731 0 0 
80 1 7.35769 3.13228 4.31882 0.000551392 -0.000919696 0.00224774 
81 1 7.33229 1.86319 5.28119 -0.00157014 -0.00271815 0.00498505 
82 1 6.07418 3.12967 7.01135 -0.00867874 0.00562939 0.0026916 
83 1 7.34722 4.37921 5.19539 -0.000528097 0.00153306 -0.0032993 
84 1 7.33321 3.12496 7.89548 0.00212388 0.00128413 0.00548739 
85 1 3.61694 4.38249 2.6019 -0.000376455 -0.00123158 0.00154303 
86 1 4.85871 4.31402 1.70001 -0.000463741 0 0 
87 1 6.08681 4.37911 6.12294 -0.000939011 -0.00253218 0.00266705 
88 1 4.80963 4.32993 5.22422 0.00190752 0.00293942 -0.00561614 
89 1 3.60354 1.87942 9.62901 -0.00446499 0.00651955 -0.00311865 
90 1 6.06537 0.62623 10.5889 -0.00068295 0.00116763 -0.00305092 
91 1 3.60065 0.666358 10.5139 -0.00110094 0.00596612 0.0071792 
92 1 4.89683 1.89179 8.78739 0.00602525 -0.00243704 -0.00517146 
93 1 7.3414 0.643592 11.4029 0.00384288 0.000840278 -0.0012456 
94 1 6.06335 1.813 13.2002 -0.00781689 -0.0119113 -0.0103458 
95 1 4.81825 0.680112 11.4701 0.00440892 -0.00152067 -0.00216321 
96 1 4.7933 1.89607 12.3839 -0.00131606 0.00928914 0.00617172 
97 1 3.52634 3.1331 10.5514 0.000657429 -0.00617745 0.00135472 
98 1 4.80847 3.14496 11.4543 -0.00345598 0.00370898 0.00232381 
99 1 3.55954 4.3749 13.2604 0.000776238 -0.000431213 -0.00538388 
100 1 3.59531 1.84367 13.2883 0.0091774 -0.00136189 0.00142222 
101 1 6.1364 1.87405 9.68715 0.0011202 0.00416541 -0.00550756 
102 1 6.04032 4.35287 9.59679 -6.58917e-05 0.00252777 0.00635602 
103 1 7.39632 1.89777 8.80367 -0.000655725 0.00157887 -0.00897734 
104 1 6.05165 3.13367 10.5322 -0.000128285 -0.000435448 -0.00460783 
105 1 7.29531 4.40632 8.7357 0.00163062 0.00266576 0.00514041 
106 1 7.35568 3.16614 11.4364 -0.00261988 0.000404164 -0.00379652 
107 1 7.32186 1.8829 12.331 -0.00787934 0.00519269 0.00259351 
108 1 7.36129 4.39519 12.2881 0.00498402 0.00371569 0.000865912 
109 1 3.56605 4.40695 9.63334 0.00118563 -0.00096454 0.00597767 
110 1 4.81827 4.37335 8.72771 0.00316192 1.56717e-05 0.00097944 
111 1 6.11206 4.39151 13.1979 -0.000880506 -0.0026386 -0.00537316 
112 1 4.83059 4.37853 12.3088 -0.000994235 0.000898604 -0.00806523 
113 1 1.12251 0.592015 14.1314 0.00375 -0.00557474 0.00266775 
115 1 2.33984 0.57943 15.0153 0.000242564 0.00644983 -0.0115974 
116 1 1.05716 1.81781 16.7307 0.0014076 0.000358446 0.00172011 
1854 1 11.1362 11.8792 6.14325 0.00556646 -0.00194357 0.00201019 
130 1 1.06105 3.0671 14.1043 -0.00101634 0.0025414 0.000279404 
131 1 2.33943 3.06654 14.9613 0.00206986 0.0051538 -0.00077432 
132 1 2.36459 1.81327 15.9191 -0.00138496 0.00208736 -0.00120569 
134 1 2.34852 4.29782 15.8367 -0.00461761 -0.00010435 0.00140252 
138 1 1.06766 4.35057 16.6317 0.00713262 0.00755164 -0.00153785 
145 1 6.07576 0.578146 14.1393 0.00374312 -0.00182151 0.00552207 
146 1 3.57301 0.576412 14.2281 0.00378856 -0.000826231 0.00365712 
147 1 7.32714 0.631286 15.0044 -4.16396e-05 0.00453096 0.00112932 
148 1 4.86438 0.588728 15.0734 -0.004381 0.00398201 0.00512698 
150 1 4.84607 1.89936 15.8875 0.00474216 -0.00221671 0.00233468 
151 1 3.57422 3.08708 14.0943 0.00708738 -0.00612855 0.00841925 
152 1 4.7703 3.1007 14.9473 -0.00144334 0.0070814 -0.0007279 
153 1 3.56454 4.37369 16.7668 0.00140174 -0.00339364 -0.0120099 
154 1 3.60466 1.88706 16.7883 0.0111488 0.0025007 0.00100359 
156 1 6.0778 3.12568 14.0544 -0.0036328 0.00397623 0.00334173 
157 1 7.38104 3.08559 14.8914 -0.00394667 -0.00546802 0.00839865 
158 1 7.32442 1.86408 15.8806 0.00407436 0.00122549 -0.00280107 
159 1 7.34976 4.26082 15.8648 -0.00465161 8.32778e-05 0.00270314 
160 1 4.83125 4.28003 15.8676 -0.00546215 0.00020395 -0.00106836 
163 2 6.08943 2.29131 16.6782 1.43022e-05 0.00144411 0.00315954 
164 2 6.09353 3.8932 16.6729 0.00111417 -0.0016156 0.00525949 
169 1 8.58535 1.87816 2.56788 0.00138814 0.00280486 -0.0022316 
171 1 8.67401 0.592719 3.51439 -0.00159654 0.00273545 0.00393626 
172 1 9.88763 1.88561 1.7 -0.000493193 0 0 
175 1 9.93281 0.577672 4.36319 -0.0017644 -0.00438235 -0.00631701 
177 1 8.57867 0.57636 7.01446 0.00570926 -0.000873496 -0.00120181 
178 1 9.94192 1.82814 5.26222 0.00123511 -0.00146739 0.00436124 
180 1 9.85165 0.574424 7.92796 -0.00255322 0.0024315 -0.00314334 
181 1 8.62608 3.09716 3.4372 -0.00331108 0.000595097 0.00752218 
182 1 9.89435 3.06157 4.38168 -4.95406e-05 0.00283446 -0.000328 
183 1 8.54689 4.44817 6.10912 -0.00670869 -0.000348602 -0.00138287 
184 1 8.59205 1.85475 6.15121 0.00585353 -0.00373736 -0.00280198 
185 1 8.61712 3.12505 7.05169 0.00209013 0.00269567 0.000786946 
186 1 9.89431 3.13448 7.90456 -0.00300354 -0.00560672 0.00543289 
197 1 8.6334 4.33135 2.53451 0.00389157 0.00198268 -0.0058121 
198 1 9.88761 4.31402 1.70001 0.000310227 0 0 
200 1 9.89082 4.42245 5.26787 -0.00641385 -0.000725901 -0.0107026 
201 1 8.67915 1.85504 9.67178 0.0044959 -0.000214543 -0.00211647 
203 1 8.62909 0.558096 10.5609 0.00814425 -0.0026446 0.00863267 
204 1 9.94075 1.88009 8.74614 0.00134073 -0.0025487 -4.95433e-05 
207 1 9.89722 0.569537 11.448 0.00410298 0.00155778 -0.00529243 
208 1 9.83681 1.88323 12.273 0.00361721 0.00351609 0.00407769 
209 1 8.62777 3.11423 10.5623 -0.00410036 0.0040176 0.0105006 
210 1 9.86061 3.14583 11.4635 0.00216208 -0.00179111 -0.00345019 
211 1 8.60209 4.36453 13.2425 0.00035481 0.00591282 -0.0035073 
212 1 8.61302 1.86836 13.2075 0.00346265 0.00183926 -0.00102228 
221 1 8.5891 4.38168 9.66006 -0.0017335 -0.00314693 -0.00181637 
222 1 9.88677 4.41048 8.76023 0.00738909 -0.00521631 0.00391008 
224 1 9.85179 4.41085 12.3506 -0.000596439 0.00419814 -0.00550984 
282 1 8.61971 0.58598 14.0751 -0.00296484 0.000544356 -0.00768121 
285 1 9.87334 0.548469 14.9427 0.000469628 0.00421043 -0.00121439 
288 1 9.84567 1.81626 15.8806 0.00842602 -0.00419931 -0.00703512 
292 1 8.68072 3.11005 14.0762 -0.00220458 8.99976e-05 0.000397933 
293 1 9.88067 3.07484 15.0336 0.00522366 -0.000496621 -0.00547731 
294 1 8.62277 4.23168 16.7441 0.000759291 -0.00120173 -0.00155301 
295 1 8.6161 1.84163 16.8555 0.00536235 -0.00647738 -0.00136851 
307 1 9.83956 4.34012 15.8565 -0.00373955 0.00264855 -0.0063134 
842 1 1.06164 5.63824 3.39547 -0.00568907 0.000630263 -0.00287227 
845 1 2.35793 5.62666 4.33303 -0.00171664 -0.00219728 0.00750618 
846 1 1.08131 6.83631 6.08506 -0.00892621 -0.00144557 -0.00117745 
848 1 1.06397 5.59989 7.00939 0.00565054 0.00660151 -0.00438176 
851 1 2.28969 5.66606 7.90727 0.00124319 0.00803304 -0.00221547 
1060 1 12.4158 9.38218 12.3234 -0.00101268 0.00698622 -0.00595832 
859 1 1.08141 6.91287 2.5665 -0.00255048 0.00502307 0.002898 
860 1 1.03008 9.35922 2.58764 -0.00140019 -0.00558479 0.00601456 
861 1 2.33933 6.91451 1.7 7.00716e-05 0 0 
862 1 1.04759 8.08494 3.42235 -0.00307763 0.000134141 -0.00173087 
863 1 2.33932 9.34291 1.70001 -0.00031604 0 0 
864 1 2.33874 8.14067 4.36669 -0.00313505 0.00542193 0.00309886 
865 1 2.33757 6.89146 5.24711 -0.00506644 1.12831e-05 0.000203745 
866 1 1.06806 8.13559 7.00133 0.00325888 -0.000140534 0.00507115 
867 1 2.30849 9.37286 5.23417 -0.00412349 0.00225526 -0.00260698 
868 1 2.33066 8.15055 7.96003 0.00174738 0.000378349 0.00732145 
871 1 1.11601 9.45193 6.15195 0.0119959 -0.0003123 -0.0106916 
874 1 1.10372 5.65447 10.5612 0.00136912 -0.0138689 0.00514079 
1853 1 12.3821 10.625 4.34854 0.0046837 0.00146966 0.00743651 
877 1 2.38243 5.63373 11.3987 -0.00565366 -0.00870345 -0.00386296 
878 1 1.05651 6.87954 13.1482 -0.00279765 0.000571466 0.00203469 
885 1 1.04416 6.86332 9.70521 0.000706904 -0.00804307 -0.0031157 
886 1 1.05389 9.42057 9.67487 -0.00175287 0.0030161 0.00974091 
887 1 2.30623 6.90232 8.85685 -0.00099226 0.00126822 0.00214028 
888 1 1.07622 8.15099 10.5339 -0.00667356 0.00113042 -0.00533491 
889 1 2.33666 9.41587 8.83085 -0.00345826 0.00318865 -0.00224028 
890 1 2.34668 8.1057 11.4305 0.00716615 -0.00725326 0.00209152 
891 1 2.32431 6.84686 12.3298 -0.00106159 -0.00126572 0.00304194 
892 1 2.29058 9.42469 12.3346 -0.00351842 0.00527829 0.000390954 
895 1 1.08333 9.38317 13.2322 -0.00814174 -0.00561325 0.00598282 
897 1 3.59491 6.94312 2.60245 -0.00255962 6.97653e-05 -0.00938898 
898 1 6.11584 5.61941 3.42507 -0.000338075 0.004051 0.00211325 
899 1 3.54708 5.63364 3.44294 -0.00773068 -0.00314258 -0.0012408 
900 1 4.85873 6.91451 1.7 -0.000288302 0 0 
901 1 7.44209 5.6416 4.3206 0.000766159 0.00624989 0.00225882 
902 1 6.09022 6.89625 6.11308 -0.0046746 0.00396184 0.00585296 
903 1 4.81455 5.62284 4.31316 0.000546473 -0.00338756 0.00177893 
904 1 6.07846 5.66356 6.99834 0.000748412 0.000800148 0.00244856 
905 1 3.59292 5.61153 6.98815 -0.0011425 0.0006787 0.00228916 
906 1 4.81733 6.88459 5.23087 -0.00328944 -0.00199785 -0.00309675 
907 1 7.33303 5.65996 7.86524 -0.00163287 0.00337909 -0.00884732 
908 1 4.8029 5.66915 7.87718 0.00408228 0.00426564 -0.00519759 
909 1 3.65717 8.13528 3.4919 -0.00485843 0.00716564 0.000475348 
910 1 4.85362 8.17547 4.34135 -0.00523777 -0.00021169 0.000274731 
911 1 3.55539 9.39493 6.0962 -0.000184952 0.0023066 0.00397978 
912 1 3.56868 6.85349 6.13525 6.68631e-05 -0.00145115 0.0070949 
913 1 3.54127 8.11829 7.04445 0.00380263 -0.00307694 -0.00262267 
914 1 4.82205 8.1331 7.87201 0.00553109 0.00745155 0.00411978 
915 1 6.09714 6.90201 2.58255 -0.00149118 -0.000976233 -0.0111331 
916 1 6.10446 9.35993 2.56223 -0.00255499 0.000143203 -0.00127718 
917 1 7.36823 6.91451 1.7 -0.000296442 0 0 
918 1 6.10052 8.13764 3.43218 0.00706836 0.0021722 -0.000518031 
919 1 7.36822 9.34291 1.70001 -0.0001654 0 0 
920 1 7.34015 8.15566 4.35969 0.000692613 -0.000885327 -0.00129654 
921 1 7.33999 6.90025 5.19877 -0.00471584 0.00311965 -0.00467061 
922 1 6.10764 8.12931 6.98508 0.00893151 0.00518027 -0.000812885 
923 1 7.37394 9.38793 5.20644 0.000193348 -0.00740361 -0.00287076 
924 1 7.35634 8.1076 7.8809 0.00189532 0.00704435 0.00423133 
925 1 3.62776 9.3974 2.55171 -0.000639545 0.010099 7.69771e-05 
926 1 4.85871 9.34292 1.70001 0.000122778 0 0 
927 1 6.11081 9.39666 6.13186 -0.00278299 0.00476806 0.0035354 
928 1 4.83114 9.38129 5.2187 0.00500691 0.00293263 0.00485535 
929 1 3.61078 6.95868 9.64206 0.00590177 -0.00319644 0.00226578 
930 1 6.08403 5.60127 10.4465 0.0053132 0.00204543 -0.00478066 
931 1 3.62472 5.67022 10.5487 0.00152118 0.00510358 0.00527631 
932 1 4.86961 6.90155 8.74443 0.00370104 -0.00534208 -0.000974511 
933 1 7.34026 5.59214 11.3962 -0.00758652 0.0032052 -0.00371482 
934 1 6.12799 6.83688 13.1722 0.00440009 0.000687883 -0.00403196 
935 1 4.83152 5.60714 11.4752 0.000484133 -0.00262332 -0.00164452 
936 1 4.81533 6.88559 12.3493 0.00109932 0.000134251 -0.00674781 
937 1 3.56833 8.16724 10.5796 -0.000309389 -7.27972e-06 0.000429851 
938 1 4.83262 8.14068 11.4689 -0.00774355 -0.00148845 -0.00490154 
939 1 3.60393 9.42054 13.2696 -0.00793108 -0.00184993 -0.00477842 
940 1 3.57029 6.87468 13.1652 -0.00229895 0.000587612 -0.00132854 
941 1 6.14785 6.92422 9.60853 -0.00131773 0.00682641 0.00192354 
942 1 6.10368 9.35314 9.66555 1.22431e-05 -0.00237974 0.00313344 
943 1 7.34304 6.87079 8.76357 -0.00141886 -0.00237675 0.00129947 
944 1 6.08697 8.11875 10.5471 -0.00341119 0.0033888 -0.000990281 
945 1 7.36421 9.3536 8.78673 0.00901626 0.00772014 -0.00433027 
946 1 7.39355 8.07402 11.4196 -0.00674228 0.00418649 -0.00113005 
947 1 7.36069 6.84859 12.2848 0.00878598 -0.0125828 -0.00127753 
948 1 7.37488 9.4135 12.274 -0.0077634 0.000998627 0.00355093 
949 1 3.56923 9.41098 9.71763 0.00176423 -0.0036708 -0.00111132 
950 1 4.83183 9.36522 8.82135 0.00461867 -0.00746632 -0.000797497 
951 1 6.09489 9.3678 13.1839 0.00709752 -0.00216909 0.00397271 
952 1 4.82799 9.42433 12.3047 -0.00666842 0.00191871 -0.00432056 
953 1 1.09358 5.62198 14.0844 -0.0065034 -0.00360866 -0.00305912 
955 1 2.39548 5.57078 14.9723 0.00338404 0.00637848 -0.00133262 
956 1 1.08679 6.90194 16.6527 -0.00395561 -0.00564326 -0.000547393 
970 1 1.11602 8.10225 14.0588 -0.000843858 0.00530349 0.00228364 
971 1 2.36881 8.12967 14.9259 -0.00538195 0.00289154 -0.00594599 
972 1 2.38456 6.87062 15.7846 -0.00353763 0.00243037 -0.00215277 
974 1 2.3755 9.40333 15.8298 -0.00551799 0.00208182 -0.00480097 
978 1 1.06523 9.40468 16.6721 0.00456195 0.00410914 0.00371846 
985 1 6.15265 5.63075 14.1515 -0.00528181 0.00161101 0.000203108 
986 1 3.5686 5.62856 14.109 0.000483329 -0.00567659 0.00410066 
987 1 7.34965 5.60171 15.0529 0.00621394 -0.000637384 0.00678939 
988 1 4.87888 5.61876 15.0276 0.000413017 -0.0004881 -0.00184706 
990 1 4.91238 6.89051 15.873 0.00874383 -0.00470919 -0.00422873 
991 1 3.57625 8.11629 14.059 -0.0015458 0.00804435 0.00295111 
992 1 4.86253 8.08299 14.9072 0.00592608 -0.00306753 0.00205747 
993 1 3.59154 9.36613 16.7742 0.0103157 -0.00490896 -0.0029885 
994 1 3.65921 6.92821 16.6855 0.00385579 -0.00311522 -0.00245353 
996 1 6.12597 8.08068 14.0485 -0.0125505 0.00325232 0.00537994 
997 1 7.3888 8.05741 14.904 0.00254506 0.00547892 0.00247998 
998 1 7.36808 6.86802 15.9081 -0.000278674 0.00480261 -0.000474757 
999 1 7.3087 9.28891 15.9027 -0.00783536 -0.00121946 -0.000459557 
1000 1 4.83803 9.32197 15.8486 -0.00243292 0.0107993 0.00330525 
1003 2 6.11335 7.25787 16.717 -0.00200013 0.00039686 -0.00369335 
1004 2 6.04411 8.95159 16.6964 -0.000336319 0.00457085 -0.00426332 
1009 1 8.627 6.88819 2.54792 0.00204949 0.00784751 -0.00181121 
1011 1 8.69635 5.62373 3.43256 -0.00184314 0.00209063 -0.0108203 
1012 1 9.88763 6.91451 1.7 -0.000447757 0 0 
1015 1 9.88793 5.63598 4.35608 -0.00364075 0.00357551 0.000986719 
1017 1 8.59766 5.672 7.00362 0.00742194 0.00101736 -0.00311536 
1018 1 9.87402 6.86532 5.2341 -0.00057173 0.00144117 -0.00573497 
1020 1 9.92506 5.66788 7.84328 0.00100074 0.000436592 -0.000931352 
1021 1 8.61322 8.12615 3.45585 0.00369072 0.00386524 0.00375952 
1022 1 9.8455 8.13364 4.32501 -0.000482341 0.00338643 -0.000989094 
1023 1 8.64956 9.38664 6.07701 0.00366457 -0.00651591 -0.0046628 
1024 1 8.57952 6.86334 6.09584 0.000137507 -0.00247316 0.00145304 
1025 1 8.586 8.14787 6.96276 -0.00101997 -0.00805581 -0.00419968 
1026 1 9.80301 8.18437 7.88367 0.00396193 -0.00279899 0.0101477 
1037 1 8.61099 9.35696 2.57189 -0.00544218 0.00502285 -0.00875618 
1038 1 9.88761 9.34292 1.70001 -0.000306449 0 0 
1040 1 9.8911 9.37484 5.20802 0.00306901 0.00159274 -0.00197583 
1041 1 8.60804 6.82947 9.64998 -0.000939523 0.00128044 -0.00259326 
1043 1 8.5898 5.59881 10.5582 -0.00685161 -0.00219529 0.00561023 
1044 1 9.83204 6.91879 8.73166 -0.0119995 -0.00110376 -0.00135236 
1047 1 9.85117 5.6148 11.414 0.00532302 0.0096494 0.00312318 
1048 1 9.87512 6.83493 12.3492 -0.0013785 0.00566589 0.00505634 
1049 1 8.59647 8.10876 10.5289 0.000956383 0.00898425 0.00340618 
1050 1 9.86472 8.10795 11.4609 0.00238691 -0.00118609 -0.0023969 
1051 1 8.61317 9.38166 13.1541 -0.00416769 0.00716757 0.000608644 
1052 1 8.62206 6.84122 13.2573 -0.0063085 0.000257373 -0.00896118 
1061 1 8.65386 9.37099 9.67377 0.00394954 -0.00133282 -0.000806621 
1062 1 9.88619 9.38702 8.77998 -0.00342025 -0.00159484 0.0103006 
1064 1 9.86216 9.38359 12.3046 -0.00561637 0.00275471 -0.000317585 
1122 1 8.57643 5.57883 14.1555 0.000818215 -0.00200598 -0.00941758 
1125 1 9.84581 5.60216 14.9972 0.000978862 0.00457625 -0.0033818 
1128 1 9.86157 6.87235 15.8463 -0.00249927 0.000222326 0.00648507 
1132 1 8.64605 8.09787 14.0999 -0.000915756 0.00370457 0.00514546 
1133 1 9.85389 8.16722 15.0153 -0.00650369 -0.0058734 0.00124223 
1134 1 8.58752 9.28803 16.7681 0.00538818 -0.00393141 0.00285274 
1135 1 8.60923 6.78531 16.8086 -0.00202789 0.00170002 0.0106296 
1147 1 9.85543 9.40858 15.8388 0.000868429 -0.00407801 -0.000319483 
1682 1 1.0429 10.6351 3.43769 -0.0022885 -0.00636876 -0.00300889 
1685 1 2.29438 10.6309 4.31379 -0.00291176 0.000189852 0.00105969 
1686 1 1.09133 11.9459 6.13439 -0.00124132 -0.00508469 0.000291967 
1688 1 1.10401 10.6767 6.99283 -0.00133063 -0.00332408 -0.0071947 
1691 1 2.32899 10.7121 7.90572 0.000349775 -0.000840273 0.000310753 
1699 1 1.10896 11.8806 2.5594 -0.00336661 -0.00338878 0.00258544 
1701 1 2.33933 11.9434 1.7 0.000104281 0 0 
1705 1 2.31362 11.8848 5.23219 0.00285521 0.00215878 -0.00408827 
1714 1 1.06525 10.7066 10.5869 -0.00364137 -0.00494087 0.00990658 
1717 1 2.32559 10.6865 11.4489 0.003467 0.00102943 0.000249969 
1718 1 1.097 11.8893 13.1943 -0.00647765 0.000643148 -0.00845411 
1725 1 1.08141 11.9324 9.69576 0.00963896 0.00030704 0.00290113 
1727 1 2.33554 11.978 8.76398 -0.000752586 3.65318e-05 0.00582011 
1731 1 2.34055 11.9254 12.2929 -0.00222907 -0.0057117 6.4731e-05 
1737 1 3.58606 11.9339 2.56251 0.00323007 -0.000374099 -0.000369928 
1738 1 6.10065 10.6479 3.41718 0.00764722 -0.00740829 -8.74898e-05 
1739 1 3.61137 10.642 3.42082 0.00177017 -0.00700087 0.00200019 
1740 1 4.85873 11.9434 1.7 3.54063e-05 0 0 
1741 1 7.382 10.6417 4.285 -0.00776375 -0.000686879 0.00294023 
1742 1 6.09698 11.9093 6.09312 -0.0035005 -0.000391093 0.00136043 
1743 1 4.85346 10.6392 4.28327 -0.00205345 -0.00327388 0.00499806 
1744 1 6.13994 10.6717 6.99794 0.00635497 0.00174421 -0.00160728 
1745 1 3.58375 10.6532 6.97852 0.00414001 0.00186967 -0.000730453 
1746 1 4.84375 11.8571 5.21708 0.0039919 0.0088372 0.00419879 
1747 1 7.33248 10.5946 7.92488 0.0016111 -0.00483814 -0.00402875 
1748 1 4.89079 10.6158 7.84764 -0.00119376 0.00102118 0.000791385 
1752 1 3.56021 11.9058 6.04598 -0.00668583 0.00591016 -0.000222673 
1755 1 6.15166 11.933 2.55025 4.4994e-05 0.00473011 0.00677903 
1757 1 7.36823 11.9434 1.7 0.000276354 0 0 
1761 1 7.35654 11.8927 5.24543 0.00245891 -0.00805555 0.000911276 
1769 1 3.55978 11.9229 9.64585 -0.0078189 0.00250175 -0.0033158 
1770 1 6.04675 10.6154 10.5579 -0.000327938 -0.000654311 0.00096797 
1771 1 3.56609 10.6769 10.569 -0.00132719 0.00585853 -0.00180015 
1772 1 4.84438 11.8932 8.75797 0.00231539 0.00497498 0.000199649 
1773 1 7.37225 10.6849 11.3706 0.000456261 -0.00256584 0.010734 
1774 1 6.13025 11.9162 13.2 0.005974 -0.00491305 -0.00452917 
1775 1 4.80899 10.6872 11.4117 0.007604 0.000483597 -0.00439132 
1776 1 4.90769 11.9512 12.3803 0.0015327 0.00558095 0.00748055 
1780 1 3.64056 11.9292 13.1497 0.00533949 -0.00518183 0.00270239 
1781 1 6.06737 11.9098 9.61894 -0.00356349 -0.00417015 -0.00685174 
1783 1 7.34377 11.8911 8.79855 0.00788894 0.00395656 0.00488334 
1787 1 7.34032 11.9272 12.2711 -0.000815518 0.00294456 -0.00705263 
1793 1 1.11085 10.641 14.084 0.00218631 -0.00166317 -0.00160216 
1795 1 2.37221 10.6677 14.977 -0.00435874 0.00861632 0.00328594 
1796 1 1.10875 11.9259 16.6767 -0.000345821 0.00469705 -0.000542029 
1812 1 2.40158 11.9118 15.8313 -0.00272805 -0.00375554 -0.00619238 
1825 1 6.14572 10.6411 14.0876 -0.00739463 -0.0015749 -0.00355141 
1826 1 3.65467 10.682 14.0537 0.00118276 -0.00366781 0.00284463 
1827 1 7.29891 10.6029 15.065 -0.000983475 0.00923439 -0.00167695 
1828 1 4.87049 10.6693 15.0543 -0.00402401 -0.00162219 0.00646718 
1830 1 4.818 12.0066 15.9398 0.00444214 0.00142525 0.00533577 
1834 1 3.60069 11.9037 16.7933 -0.00419351 0.00130662 -0.00266563 
1838 1 7.34986 11.9766 15.8919 0.005854 -0.00171536 -0.000175507 
1849 1 8.64324 11.8554 2.51954 0.00758205 -0.00323505 -0.00701895 
1851 1 8.64436 10.6407 3.43974 0.00614446 -0.00178192 -0.00227931 
1852 1 9.88763 11.9434 1.7 1.13025e-05 0 0 
1855 1 9.86085 10.6892 4.33514 -0.00473077 0.000854634 0.00403462 
1857 1 8.62431 10.6278 6.99527 -0.00062568 -0.00235586 -0.00507897 
1858 1 9.89979 11.8721 5.20105 0.00665083 -0.00270266 -0.00171398 
1860 1 9.89529 10.5307 7.81774 0.00561529 0.00153825 0.000357178 
1864 1 8.64854 11.8417 6.10206 -0.00113859 0.00447366 -0.00665525 
1881 1 8.62896 11.8682 9.63954 0.00111988 0.00314613 0.00281827 
1883 1 8.6304 10.6904 10.5313 0.00128779 -0.00371525 0.00501122 
1884 1 9.89441 11.8488 8.71076 -0.00560988 0.00383532 -0.0112513 
1887 1 9.87191 10.6508 11.4529 0.00118863 -0.00269737 0.000313474 
1888 1 9.83631 11.9376 12.3441 0.00302523 0.000397142 0.00352043 
1892 1 8.5888 11.9177 13.2302 0.00472879 0.00421098 0.00241674 
1962 1 8.54467 10.6434 14.0487 -0.000905007 -0.0030273 -0.00788224 
1965 1 9.77269 10.6375 15.002 0.0105605 0.00798719 0.000490026 
1968 1 9.80713 11.9639 15.8285 -0.00106704 0.00797002 -0.00115133 
1975 1 8.59294 11.9626 16.7409 0.00599208 -0.00327821 -0.0083977 
1843 2 6.11176 12.4118 16.6962 -0.00395924 -0.00206344 0.00464738 
223 1 11.113 4.35178 13.2341 -0.000648432 -0.0062169 0.00100552 
1042 1 11.1257 5.65276 10.5526 0.00907573 -0.0079986 0.0118361 
281 1 11.1353 0.579267 14.0716 0.0028169 0.00202675 -0.00452603 
1010 1 11.1065 5.62849 3.42294 -0.00335998 0.00163603 0.00628032 
213 1 11.1736 1.84128 9.65878 -0.00235606 0.00372629 -0.000552282 
170 1 11.2156 0.588094 3.46961 -0.00333899 -0.00581136 -0.00783292 
1124 1 11.0808 6.84461 16.6957 -0.00252182 0.00139026 0.000271626 
1039 1 11.1523 9.40989 6.07038 -0.00428748 -0.00302461 0.00208107 
1850 1 11.0826 10.649 3.38972 0.0100638 -0.00217386 -0.00740831 
1027 1 11.1008 6.94378 2.54412 0.00186086 0.00609694 0.000369264 
1867 1 11.1222 11.9283 2.54511 -0.000327807 -0.00336441 -0.00111544 
190 1 11.173 3.07886 3.49112 -0.00501057 -0.00439944 0.0014609 
1063 1 11.1517 9.38754 13.2183 -0.00417744 0.00380158 0.000389667 
1856 1 11.1354 10.6134 6.97861 -0.00962072 -0.000545334 0.00244892 
202 1 11.1538 0.583781 10.5315 -0.00364199 0.000338017 0.00825549 
1138 1 11.126 8.15358 14.0797 -0.00345181 -0.00053609 0.00874404 
1014 1 11.1731 6.91637 6.13282 -0.0015102 -0.000227038 -0.00413188 
206 1 11.1306 1.82558 13.1564 -0.00173708 -0.00670468 -0.0104909 
1054 1 11.1574 9.33879 9.67138 0.00474114 -0.000390083 0.0036079 
188 1 11.1517 4.35388 2.59925 0.00696518 -0.00396375 0.00209602 
187 1 11.117 1.84816 2.58036 0.000789875 -0.000597527 -0.00924902 
214 1 11.1236 4.37252 9.6416 0.0104819 0.00101715 0.00242648 
199 1 11.1791 4.42976 6.16086 0.00259505 0.00736719 0.00167748 
1046 1 11.126 6.80784 13.2355 0.00247234 0.00424448 0.00799069 
194 1 11.1748 3.14289 7.03372 -0.00143507 0.00597652 0.00109188 
298 1 11.1001 3.09137 14.1551 -0.00416927 -0.000640616 -0.000109197 
1053 1 11.1095 6.89541 9.66182 0.00011835 0.00774562 0.00174529 
1030 1 11.1033 8.15372 3.43337 -0.0063116 0.00938037 0.00413569 
216 1 11.1174 3.1171 10.5292 -0.00574314 0.000699586 -0.00157266 
1121 1 11.1387 5.59373 14.0957 0.00060481 0.00382059 0.00486194 
1016 1 11.1664 5.66893 7.00806 -0.00636297 0.00197082 0.00100759 
1028 1 11.1441 9.39084 2.54157 -0.00847583 -0.00572989 -0.00235114 
1882 1 11.1771 10.6314 10.5401 0.00576591 -0.000241778 0.00263437 
1961 1 11.1107 10.6236 14.1488 0.00187908 0.00357873 0.000152923 
174 1 11.1825 1.8776 6.14318 -0.00627677 -0.00621238 -0.00327877 
1034 1 11.0853 8.14956 7.02281 0.00329012 -0.00439082 -0.00292585 
1056 1 11.1542 8.12943 10.5504 0.00701955 -0.00470404 -0.00555831 
1146 1 11.118 9.37479 16.6172 -0.00159231 -0.00297153 -0.000956375 
1964 1 11.0716 11.9268 16.6806 0.00787275 -0.00379213 -0.000166215 
284 1 11.1665 1.78563 16.6937 0.00222337 0.000171049 -0.00152472 
1893 1 11.1366 11.8908 9.5891 0.00384245 -0.0035767 0.000886772 
306 1 11.0728 4.29894 16.6681 -0.00143365 -0.00357364 -0.00443261 
176 1 11.1283 0.605763 7.0126 0.00482416 -0.00424119 -0.00199303 
1886 1 11.066 11.8788 13.232 0.00559761 0.00950042 0.00336206 
1859 1 12.377 10.6327 7.87222 -0.0102474 -0.00204845 -0.000699415 
179 1 12.372 0.653699 7.89707 -0.00751171 0.00449091 0.00584717 
1033 1 12.3789 6.92816 5.1928 -0.00603996 0.00418811 -0.00539028 
191 1 12.3971 4.31401 1.70001 6.63158e-05 0 0 
1869 1 12.3971 11.9434 1.7 -5.74085e-05 0 0 
1029 1 12.3971 6.91451 1.7 0.000120957 0 0 
189 1 12.3971 1.88561 1.7 -0.000292963 0 0 
1123 1 12.3953 5.60619 14.971 -0.00176374 0.00324645 -0.00251332 
1031 1 12.3971 9.34291 1.70001 -0.000232052 0 0 
192 1 12.4344 3.09197 4.36325 0.00977886 -0.0103172 -6.16593e-05 
1963 1 12.4086 10.672 14.9858 -0.00360605 -0.00144867 0.0101597 
1885 1 12.4244 10.6255 11.4389 0.00503155 0.00374249 0.00493776 
1013 1 12.3665 5.5849 4.32245 0.000761963 -0.000754327 0.00738764 
1019 1 12.3541 5.68775 7.84931 -0.00188032 0.00210439 0.00554598 
1057 1 12.407 9.41179 8.78618 0.00439352 0.00564353 -0.0010917 
1032 1 12.3378 8.16145 4.29344 0.00342299 -0.00245671 -0.00472347 
1873 1 12.3644 11.881 5.23184 0.001044 0.0041253 -0.00212987 
220 1 12.3906 4.33126 12.3656 -0.00160881 0.000885981 0.00558445 
299 1 12.3878 3.05481 14.9768 0.00540279 -0.00249833 0.00349038 
217 1 12.4092 4.41095 8.7347 0.00525079 -0.00804015 0.00287941 
173 1 12.4457 0.568176 4.35091 0.00529507 0.00282802 -0.00806138 
218 1 12.3877 3.11167 11.3961 0.00660742 -0.00154614 -0.0091914 
193 1 12.4418 1.8608 5.22912 0.000629861 0.00292817 0.00300585 
1055 1 12.3788 6.89931 8.72769 0.000300345 -0.00230355 0.00293602 
205 1 12.4071 0.533939 11.4082 -0.000874244 -0.00277696 0.00831645 
215 1 12.4337 1.87947 8.78311 -0.00696093 0.00151989 0.00370975 
196 1 12.4069 3.15649 7.8955 -0.000579515 -0.00354023 0.00534848 
302 1 12.3651 4.31786 15.8648 0.00132221 -0.00194599 0.0015866 
1142 1 12.3763 9.33574 15.8422 0.00607098 -0.00570819 -0.00258216 
1058 1 12.3967 8.11224 11.4089 0.00508789 0.00119601 -9.68489e-05 
1899 1 12.3294 11.8898 12.3058 0.00103508 -0.00829858 0.00451429 
1036 1 12.3859 8.10946 7.85293 -0.00348981 0.00270401 0.00264458 
1980 1 12.4005 11.9585 15.8826 -0.00155871 0.00137348 0.00136383 
300 1 12.3975 1.81119 15.8314 0.00218555 0.00347057 -0.00184405 
1045 1 12.3782 5.6506 11.4041 -0.0014186 -0.00198617 -0.0128968 
1139 1 12.4058 8.08138 14.972 0.00197535 0.00920644 0.000331643 
1895 1 12.3755 11.8734 8.7564 0.00510484 -0.0014257 0.00784118 
1035 1 12.3732 9.37105 5.18088 -0.000785204 -0.00198661 -0.00232876 
1140 1 12.3597 6.79401 15.9015 -0.00668186 0.000354114 0.00354695 
283 1 12.38 0.587319 14.9641 -0.00204171 -0.00408051 -0.00244302 
2803 1 12.3514 15.7057 14.9546 -0.000858138 0.00923373 0.00513073 
2819 1 12.3903 18.1625 14.9494 0.00270847 -0.00516301 -0.00598528 
3579 1 12.3932 21.9289 12.3083 -0.00425863 -0.000322687 0.00142741 
1898 1 12.3797 13.1525 11.3814 0.000325155 -0.0057614 0.00214056 
3578 1 12.3939 23.1597 11.4383 0.000873665 -0.00223685 -0.000409577 
3556 1 12.4254 23.2639 7.88214 -0.00335762 -0.00830722 -0.00216751 
2740 1 12.3873 19.4509 12.3169 0.00390358 0.00507435 -0.00244934 
1875 1 12.3962 14.4145 5.21277 -0.003092 -0.00486319 -0.00152028 
3662 1 12.4232 24.4141 15.8336 -0.00185944 -0.00166194 -0.00102026 
1979 1 12.3759 13.1513 14.8948 -0.00480335 -0.00021862 -0.000902973 
1897 1 12.4329 14.4448 8.702 0.00604003 -0.000790368 -0.00800537 
1872 1 12.3815 13.1301 4.3385 0.000229984 0.000475757 0.00848361 