ITEM: TIMESTEP
35000
ITEM: NUMBER OF ATOMS
20688
ITEM: BOX BOUNDS pp pp pp
0 50.289
0 50.289
0 243.135
ITEM: ATOMS id type xu yu zu vx vy vz 
2 1 1.32989 0.56974 3.43339 0.00864805 0.0012668 0.00307379 
4 1 0.0798279 1.88561 1.7 -0.000108475 0 0 
5 1 2.59443 0.536347 4.36322 -0.000348816 0.0045199 -0.00555418 
6 1 1.35021 1.87473 6.15878 0.0014722 4.50094e-05 0.0067353 
1712 1 0.104405 14.4044 5.18881 -0.00120407 0.00439228 0.00908452 
8 1 1.31855 0.533335 6.99688 0.00246702 -0.00622935 0.00532916 
7 1 0.105285 0.565333 4.2769 0.00318715 0.00810641 -0.000231412 
11 1 2.58811 0.539418 7.91135 0.00622147 -8.37865e-05 0.000831044 
12 1 0.0923797 0.535635 7.8361 0.00209436 -0.00421339 0.00706117 
14 1 0.0600654 3.04949 4.36582 0.00152664 -0.00299256 -0.00369074 
18 1 0.0587436 3.06939 7.90015 0.00139588 -0.00472934 0.00336556 
19 1 1.33084 1.81622 2.56529 -0.0079114 0.00201536 -9.60856e-05 
20 1 1.37058 4.34316 2.56305 0.00673893 -0.00294899 0.00017893 
21 1 2.58933 1.88561 1.7 3.70075e-05 0 0 
22 1 1.31201 3.0799 3.45104 -0.00383226 -0.00443991 0.00114036 
23 1 2.58932 4.31401 1.70001 -0.000181057 0 0 
24 1 2.5684 3.0904 4.33708 0.00413391 -0.0050548 -0.000269743 
25 1 2.59183 1.8209 5.21806 0.000622786 0.00119558 0.00358046 
26 1 1.34885 3.07839 7.05665 0.00699005 -0.0036318 0.00212135 
27 1 2.59664 4.31966 5.2813 -0.00605993 -0.00649728 -8.71458e-05 
28 1 2.59325 3.06918 7.97154 0.00161327 0.00343461 0.00246306 
30 1 0.0798109 4.31402 1.70001 6.27956e-05 0 0 
31 1 1.34044 4.33143 6.18028 0.00376149 0.000260315 -0.00471973 
32 1 0.0813983 4.31447 5.25589 0.000210479 -0.00648026 0.00393727 
34 1 1.3255 0.552136 10.5538 -0.000772438 -0.00116171 -0.000609026 
957 1 0.106644 5.6338 14.9481 -0.00867748 -0.000964891 0.00282616 
37 1 2.66273 0.534322 11.4293 0.00720401 0.00973553 -0.00315053 
38 1 1.33788 1.83381 13.1377 -0.00273617 0.00249317 -0.00337567 
3372 1 0.0540437 20.6823 7.85386 -0.00378728 0.00636717 -0.00255184 
882 1 0.0694852 8.14232 11.4319 0.00370071 0.0041232 -0.002932 
3477 1 0.107841 20.6895 14.9623 -0.0045385 -0.000189909 0.00111956 
45 1 1.32937 1.78821 9.65559 -0.00490262 -0.00347397 0.00122312 
46 1 1.33813 4.31021 9.67973 0.00392175 -0.00462984 0.00354419 
47 1 2.57823 1.77402 8.77724 0.00218715 -0.00234857 0.00187371 
48 1 1.35141 3.06773 10.4963 0.000355367 -0.00799517 0.00693009 
49 1 2.58943 4.32953 8.81562 -0.00102966 0.00277628 0.000360798 
50 1 2.63712 3.07092 11.4236 0.000350942 -0.0041736 -0.00273934 
51 1 2.69635 1.77876 12.2943 0.000607526 -0.00604255 0.00768233 
52 1 2.59845 4.33809 12.3392 0.00757993 -0.00361051 0.00782764 
54 1 0.111683 4.31866 8.77393 0.00341332 -0.00313076 0.00295888 
55 1 1.37358 4.32363 13.2444 -0.0116218 -0.00709722 0.00165492 
56 1 0.101738 4.35924 12.399 -0.00511967 0.00345783 -0.00209912 
57 1 3.86072 1.80353 2.56881 0.0024083 8.41543e-06 -0.0015351 
58 1 6.39171 0.557981 3.46834 -8.82209e-05 -0.00581083 -0.00348283 
59 1 3.92411 0.56348 3.4701 -0.00184903 0.00648964 0.00319526 
60 1 5.10873 1.88561 1.7 -0.000341243 0 0 
61 1 7.6307 0.576942 4.34677 0.00147923 0.00157103 0.00774299 
62 1 6.35193 1.86566 6.14341 7.83622e-05 -0.00023427 0.00472579 
63 1 5.14263 0.530028 4.3469 0.00372882 -0.00135485 -0.000511809 
64 1 6.39877 0.57066 7.00591 0.00352312 0.00305494 0.00498821 
65 1 3.88123 0.591191 7.02378 0.00144893 0.00391571 -0.00254483 
66 1 5.11657 1.81389 5.26511 0.00473098 -0.00919264 -0.00783552 
67 1 7.65424 0.574372 7.87922 -0.00640933 -0.00866147 0.000160655 
68 1 5.14314 0.564318 7.86978 -0.00128956 0.00530719 4.46974e-05 
69 1 3.87794 3.07407 3.43384 0.00391076 -0.00805034 0.00308593 
70 1 5.1235 3.06763 4.38234 -0.00509739 -0.000254258 0.00189218 
71 1 3.87448 4.36522 6.11847 0.00297808 -0.00539044 -0.00744854 
72 1 3.80535 1.89267 6.10184 7.83496e-05 0.000484954 -0.00233658 
73 1 3.79952 3.10625 7.07799 -0.0011362 -0.00800964 0.00204813 
74 1 5.10149 3.08068 7.88489 0.00187654 0.00114127 0.0039932 
75 1 6.32944 1.8364 2.5583 0.00186158 -0.00494183 0.00220849 
76 1 6.34504 4.32832 2.56651 -0.00402864 -0.00282872 0.000719885 
77 1 7.61823 1.88561 1.7 -9.93644e-06 0 0 
78 1 6.37408 3.07658 3.49543 -0.00134921 0.00121158 0.00158231 
79 1 7.61822 4.31401 1.70001 0.000154376 0 0 
80 1 7.61497 3.1192 4.29311 0.00677277 -0.000886733 -0.00367728 
81 1 7.6233 1.89254 5.19991 0.000613288 0.00243542 -0.00545458 
82 1 6.37616 3.11686 7.00699 0.00227829 -0.00746773 -0.00435624 
83 1 7.632 4.39633 5.1796 -0.000967476 -0.00106816 -0.0028907 
84 1 7.66635 3.11668 7.85577 -0.00469409 0.000382073 -0.000462126 
85 1 3.81604 4.28361 2.52765 0.00407528 0.000270796 -0.000599642 
86 1 5.10871 4.31402 1.70001 -0.0002828 0 0 
87 1 6.43239 4.37348 6.09768 -0.000588526 -0.00171551 0.0047434 
88 1 5.12647 4.34738 5.2377 -0.0076326 0.00658487 -0.00640166 
89 1 3.87443 1.76972 9.65397 -0.00873181 -0.00293277 0.00436132 
90 1 6.35848 0.555721 10.5795 0.000330478 -0.00242351 -0.00461907 
91 1 3.90897 0.511321 10.522 -0.00262619 -0.0014862 0.00199769 
92 1 5.12885 1.81941 8.78339 -0.00133693 0.00667094 0.00673237 
93 1 7.61565 0.58041 11.4252 0.0020771 -0.0042995 0.00415237 
94 1 6.39801 1.8112 13.1982 -0.000494695 -0.00582282 -0.00144009 
95 1 5.1402 0.524845 11.4698 0.000675312 -0.00533966 -0.00298797 
96 1 5.13045 1.84649 12.287 -0.00929865 -0.00871963 0.00645921 
97 1 3.90272 3.0951 10.5062 0.000207797 0.0123413 -0.00290817 
98 1 5.16946 3.07804 11.4182 -0.00118099 -0.000499348 -0.0115229 
99 1 3.87233 4.37916 13.2141 -0.000149239 0.00401638 0.00331593 
100 1 3.92604 1.82875 13.1727 -0.000105621 0.00449784 0.0016652 
101 1 6.39461 1.78518 9.64173 0.00611156 -0.00340212 0.000424883 
102 1 6.36131 4.3729 9.68469 -0.00276165 -0.00747562 0.00728816 
103 1 7.622 1.85099 8.77111 0.0046646 0.000981909 0.00345953 
104 1 6.41846 3.11819 10.5133 -0.00130711 0.0135984 0.00911016 
105 1 7.6598 4.39951 8.74936 -0.0065867 0.00209791 0.00478027 
106 1 7.66591 3.15155 11.4177 -0.00119366 -0.00344371 0.00282815 
107 1 7.68689 1.87898 12.3015 0.00182862 0.0014006 -0.00701181 
108 1 7.65444 4.35638 12.4085 -0.00149363 -0.00347245 -0.00319684 
109 1 3.85042 4.32231 9.62231 -0.00784125 0.00216214 0.00355442 
110 1 5.13516 4.35409 8.76876 0.000676333 -0.000230955 0.00180007 
111 1 6.35614 4.34349 13.2459 -0.00151675 -0.00451562 0.00815421 
112 1 5.16265 4.3476 12.2917 -0.00388451 0.0010399 -0.00188768 
113 1 1.41957 0.561522 14.0514 -0.00313346 -0.000300159 0.00593653 
115 1 2.63106 0.542013 14.9133 0.00280603 0.00102651 -0.000750164 
116 1 1.32437 1.84998 16.676 0.00480853 0.00806572 -0.00155604 
117 1 0.131958 0.56428 14.9424 -0.00137682 0.009105 -0.00359718 
120 1 0.0716694 1.84056 15.8636 -0.0051576 -0.00170908 0.00847407 
125 1 0.0534857 3.09998 14.971 -0.00170884 -0.00172601 0.00258687 
1854 1 11.3694 11.8369 6.13156 -0.00343635 0.00239631 -0.00257633 
130 1 1.36378 3.12331 14.1357 -0.00966779 -0.00903797 -0.000885503 
131 1 2.58995 3.0559 14.9547 -0.0137189 0.00299783 0.00292558 
132 1 2.58684 1.81957 15.8102 -0.00361745 0.00350327 0.00105579 
134 1 2.6539 4.32425 15.8918 0.00389411 0.00724788 -0.000213263 
138 1 1.37097 4.29803 16.6529 -0.00107266 0.00147079 -0.00225999 
36 1 0.0634997 1.80796 8.74088 -0.00325009 6.38866e-05 -0.00334388 
145 1 6.38229 0.567316 14.1309 0.00292784 -0.00531569 -0.00211418 
146 1 3.88018 0.549279 14.0922 -0.00463734 -0.00148141 0.00128486 
147 1 7.64365 0.595292 15.0215 -0.00592859 -0.00167103 -0.0105608 
148 1 5.11542 0.558839 15.0496 -0.00114598 0.000829409 -0.00139339 
150 1 5.05015 1.85321 15.9273 0.00850238 -0.00646068 -0.00459009 
151 1 3.85079 3.07938 14.0444 -0.00336617 0.00374902 -0.00442269 
152 1 5.05836 3.04513 14.9963 0.00122796 -0.00153097 0.000443698 
153 1 3.819 4.28335 16.8288 0.00288601 0.00141703 -0.00179523 
154 1 3.81617 1.85696 16.7949 0.00158956 -0.000133153 0.00546918 
156 1 6.36873 3.10196 14.1222 -0.00442276 -0.00327025 0.00757234 
157 1 7.64385 3.11016 14.9289 -0.0106984 -0.00251095 -0.00105505 
158 1 7.61563 1.87889 15.8594 -0.00123455 -0.00159735 0.00835464 
159 1 7.59891 4.3289 15.8826 -0.00402223 -0.000522381 -0.00321272 
160 1 5.11515 4.30198 15.9129 -0.00166854 0.00607971 0.000603995 
163 2 6.39764 2.26846 16.6689 0.00244667 0.00336724 -0.00231237 
164 2 6.39374 3.89144 16.69 0.00316989 0.00226507 -0.00319063 
169 1 8.90578 1.85722 2.56421 0.00322019 -0.00385267 0.00438608 
171 1 8.91195 0.583232 3.43341 -0.0105803 0.00524002 0.00505523 
172 1 10.1376 1.88561 1.7 4.00102e-06 0 0 
175 1 10.1434 0.584117 4.35018 0.00532932 0.00493835 -0.00715015 
177 1 8.88144 0.578168 7.02548 -0.0005965 -0.00719578 -0.00837733 
178 1 10.1631 1.8143 5.22443 -0.00304184 0.00870768 0.00273865 
180 1 10.116 0.551195 7.89567 -0.00328417 -0.00326082 -0.00274013 
181 1 8.83109 3.09186 3.44025 -0.00314391 -0.00141153 0.00226275 
182 1 10.1267 3.1016 4.31628 -0.00152386 -0.000806944 -0.00471454 
183 1 8.91731 4.34796 6.07364 0.00124479 0.00340177 0.00434781 
184 1 8.8812 1.83534 6.07534 0.00547714 -0.00345074 0.00605766 
185 1 8.86742 3.08055 6.98408 0.00713933 -0.0028103 0.00627224 
186 1 10.1432 3.0782 7.87186 0.00608319 -0.00136808 0.00273257 
197 1 8.9013 4.32438 2.59854 0.00616115 -0.0049074 -0.00647085 
198 1 10.1376 4.31402 1.70001 -0.000135813 0 0 
200 1 10.1532 4.33852 5.18243 -0.00212606 -0.00721146 -0.00908519 
201 1 8.90451 1.80651 9.66124 -0.00578514 -0.00408931 0.00934421 
203 1 8.92703 0.578083 10.5534 0.00312103 -0.000213478 0.00648363 
204 1 10.0883 1.81316 8.73957 -0.00865842 0.0112254 -0.00389033 
207 1 10.1786 0.59159 11.4351 -0.00157305 0.00540017 0.00384355 
208 1 10.2063 1.85775 12.3062 0.00289285 0.00431292 0.00725277 
209 1 8.86621 3.07388 10.4945 0.0013751 0.00643414 -0.00647621 
210 1 10.1463 3.15409 11.4295 -0.00303499 -0.00157112 0.00149502 
211 1 8.88101 4.44608 13.246 0.0020981 0.00671114 -0.00108761 
212 1 8.94448 1.87705 13.2128 0.00704428 -3.56371e-05 0.00365985 
221 1 8.86433 4.33244 9.66655 0.000310542 -0.00442213 -0.00654103 
222 1 10.1247 4.36913 8.7664 0.000473903 -0.00329466 0.00194519 
224 1 10.0924 4.43558 12.3129 0.000950121 -0.0143496 0.00360177 
282 1 8.91433 0.636975 14.1094 -0.00185957 0.00758763 0.00174221 
285 1 10.1834 0.606478 14.9724 -0.00116113 -0.00355644 -0.00507883 
288 1 10.1083 1.84494 15.8742 -0.00132024 0.000875371 -0.00284137 
292 1 8.8565 3.1637 14.0217 -0.000185533 -0.00377568 -0.00140489 
293 1 10.0893 3.11519 14.9673 0.00435201 -0.00606787 2.58282e-05 
294 1 8.85385 4.37581 16.7677 0.00143545 -0.00101062 0.0052667 
295 1 8.85608 1.84055 16.7906 -0.00534597 -0.00386591 0.0117997 
307 1 10.129 4.39237 15.8577 -0.00495576 -0.00749366 0.00641647 
842 1 1.36873 5.60221 3.49678 -0.00597895 -0.00430886 -0.00238398 
844 1 0.0798279 6.91451 1.7 -0.000105878 0 0 
845 1 2.55349 5.57099 4.38653 -0.000541981 -0.0035185 0.00290598 
846 1 1.36165 6.8914 6.132 0.00279168 0.00224347 -0.00660388 
847 1 0.154513 5.62048 4.3316 -0.000619777 -0.00418337 0.0072326 
848 1 1.35749 5.6563 6.98639 -0.00947336 -0.00881222 0.0083927 
139 1 0.107495 4.32571 15.8364 0.0116757 0.0104892 0.00260271 
851 1 2.613 5.59648 7.9363 0.00360398 -0.00284372 -0.00041336 
852 1 0.0581339 5.60685 7.91151 -0.00340481 0.000300137 0.00633809 
854 1 0.0851529 8.14138 4.33184 0.000689057 0.00139827 0.00504625 
858 1 0.0760791 8.10836 7.88151 -0.00862471 -0.00768515 -0.00139579 
859 1 1.32486 6.91961 2.55618 -0.00302241 -0.00382629 0.0125572 
860 1 1.33061 9.39115 2.55936 -0.00533157 -0.000321883 0.00653944 
861 1 2.58933 6.91451 1.7 -0.000658933 0 0 
862 1 1.36879 8.16504 3.46529 0.00910872 -0.00509305 0.00144936 
863 1 2.58932 9.34291 1.70001 4.04738e-05 0 0 
864 1 2.60503 8.15559 4.29073 0.00122274 -0.00301303 0.00168413 
865 1 2.54719 6.83815 5.26443 -0.000766985 -0.00123757 -0.000690208 
866 1 1.29463 8.08357 6.99581 0.00203888 0.00453061 0.00567372 
867 1 2.58255 9.33565 5.19759 0.000395918 -0.00610123 0.00471617 
868 1 2.59358 8.07077 7.87891 -0.00152151 0.00999396 0.00165546 
870 1 0.0798109 9.34292 1.70001 -7.72481e-06 0 0 
871 1 1.31499 9.3449 6.10691 0.00436684 0.000883056 0.000609382 
872 1 0.0693122 9.39656 5.23143 -0.000813977 -0.00064716 -0.00318289 
874 1 1.32734 5.56176 10.6197 -0.00215379 0.000712046 -0.00402983 
850 1 0.126951 6.88579 5.21104 0.00452942 -0.00724351 0.00444287 
877 1 2.5857 5.5947 11.4135 -0.0020236 -1.62284e-05 0.00865636 
878 1 1.29913 6.84454 13.1818 0.00463579 -0.010217 0.00235964 
879 1 0.0356292 5.61878 11.4468 -0.00668462 -0.00771266 0.00175979 
3644 1 11.4436 21.9985 16.6226 -0.000307553 -0.0021167 -0.00685813 
1879 1 11.3821 14.3972 6.16278 0.00017538 0.00471481 0.000793612 
885 1 1.32754 6.80998 9.68294 -0.00467032 -0.00481122 -0.00621864 
886 1 1.31289 9.3985 9.67728 -0.00218711 -0.00018987 0.00184297 
887 1 2.61416 6.83645 8.81306 -0.00599023 -0.00410346 -0.00385182 
888 1 1.30658 8.10254 10.5478 0.00587855 0.00231022 0.00741469 
889 1 2.60346 9.34814 8.78341 0.000684903 -0.00298309 0.00533633 
890 1 2.59655 8.11567 11.4281 -0.000160159 -0.00119563 -0.00514055 
891 1 2.54237 6.87114 12.3124 -0.00467416 0.00995116 0.00378955 
892 1 2.56267 9.38973 12.2646 0.00402392 -0.00110505 0.00696952 
894 1 0.0642481 9.39348 8.76967 0.00206934 0.00120465 -0.00137411 
895 1 1.2613 9.40981 13.1925 0.000424982 0.000244146 0.000885332 
896 1 0.047818 9.39368 12.3207 -0.00872102 -0.00443727 0.00058059 
897 1 3.77738 6.82742 2.54944 -0.00650766 -0.00327683 -0.000481992 
898 1 6.40324 5.58323 3.41212 -0.00317029 0.00134672 -0.000796167 
899 1 3.81731 5.5332 3.43885 0.00394198 0.00780338 0.00782472 
900 1 5.10873 6.91451 1.7 -0.000672326 0 0 
901 1 7.6257 5.62986 4.3035 0.000818647 0.00650747 0.00269421 
902 1 6.34509 6.86975 6.12791 -0.00333736 -0.00127426 -0.000208603 
903 1 5.14069 5.56412 4.28277 -0.00248606 -0.00677935 0.0020611 
904 1 6.42263 5.645 7.02431 -0.00957797 -0.000964824 0.0090626 
905 1 3.84473 5.58057 7.01571 0.00159931 0.00558974 0.00908968 
906 1 5.09412 6.79754 5.2211 0.00502043 0.00461847 -0.00321658 
907 1 7.65365 5.63708 7.87892 0.00856006 -0.00296901 -0.00883085 
908 1 5.11228 5.58683 7.87869 -0.00610179 -0.00476785 -0.00703533 
909 1 3.86145 8.0742 3.37571 0.00211059 -0.00205142 0.00833126 
910 1 5.11628 8.05263 4.2877 -0.00380016 -0.00255609 0.00182364 
911 1 3.86831 9.33289 6.07753 0.00639492 0.00511174 -0.00835689 
912 1 3.82491 6.80866 6.16517 -0.00489846 -0.00471042 -0.00333038 
913 1 3.8537 8.16418 7.03192 0.00135404 0.00421374 0.00743348 
914 1 5.09709 8.15478 7.86858 0.000665073 -0.00671775 0.00121055 
915 1 6.35212 6.91879 2.54364 0.00570208 -0.000605907 -0.00638159 
916 1 6.39278 9.36988 2.54954 0.00262483 0.000285641 0.000933322 
917 1 7.61823 6.91451 1.7 9.16416e-05 0 0 
918 1 6.33908 8.18777 3.4318 0.00780456 0.00882496 0.000922652 
919 1 7.61822 9.34291 1.70001 0.000595229 0 0 
920 1 7.59577 8.15416 4.30253 -0.00169179 0.00342206 0.00740732 
921 1 7.60925 6.89891 5.1806 -0.00604126 -0.00359176 -0.00256618 
922 1 6.38949 8.14098 6.93599 -0.00186829 0.00385718 -0.0089211 
923 1 7.62667 9.40801 5.23171 0.00328461 -0.00204698 0.0021925 
924 1 7.64381 8.16324 7.88626 0.00926001 0.00279649 -0.000810472 
925 1 3.87502 9.37771 2.53221 0.00243047 0.00672428 -0.00727261 
926 1 5.10871 9.34292 1.70001 0.000388891 0 0 
927 1 6.39465 9.41471 6.09754 -0.000212838 0.00892726 -0.00111591 
928 1 5.12499 9.32919 5.15153 0.00300592 0.00343503 0.000784893 
929 1 3.89729 6.84637 9.6242 -0.00365529 0.00477103 0.00574969 
930 1 6.36014 5.62185 10.5058 0.00288675 -0.000463515 0.000643105 
931 1 3.83386 5.57424 10.5054 0.000292923 -0.00483437 -0.00570288 
932 1 5.13065 6.86276 8.76409 0.000585081 0.00251413 0.00560418 
933 1 7.62419 5.59835 11.4593 -0.000498325 0.00296948 -0.000447065 
934 1 6.384 6.8892 13.2355 0.00490761 0.00128837 -0.000234226 
935 1 5.12189 5.59634 11.3984 0.00314828 0.00250072 -0.00203537 
936 1 5.09764 6.85276 12.2907 -0.0069797 -0.00699743 0.00443583 
937 1 3.88053 8.08738 10.5209 0.00515588 -0.000974016 0.00490758 
938 1 5.1238 8.1233 11.4262 0.00301891 -0.00359173 -0.00064038 
939 1 3.82562 9.36726 13.1392 0.00123851 -0.00496556 -0.00275605 
940 1 3.84261 6.87642 13.1575 0.00763843 0.0051642 0.000877334 
941 1 6.38174 6.86639 9.62952 -0.00190997 -0.00253536 0.00383799 
942 1 6.42671 9.41369 9.62829 0.00193781 0.00669124 -0.00179332 
943 1 7.65264 6.89948 8.76095 0.00141758 0.0109377 -0.00136859 
944 1 6.35042 8.10514 10.506 0.0030627 -8.27656e-05 3.25166e-05 
945 1 7.65256 9.42718 8.78313 -0.00449513 -0.00080957 -0.00049289 
946 1 7.59845 8.15708 11.431 -0.00487836 0.00580677 0.00607495 
947 1 7.58766 6.90501 12.3309 0.000477415 0.0038541 -0.00060997 
948 1 7.58777 9.35744 12.3026 -0.0054918 -0.00752701 -0.00255457 
949 1 3.85656 9.33293 9.64344 -4.74327e-05 -0.00623152 0.00446363 
950 1 5.1295 9.39831 8.7123 -0.00108376 0.0145445 6.14655e-05 
951 1 6.36401 9.37382 13.1698 0.0129657 0.00289027 -0.00134146 
952 1 5.09884 9.41189 12.2983 -0.0034216 -0.00102389 -4.29025e-05 
953 1 1.40024 5.61289 14.1011 -0.000841603 -0.000397551 0.00588563 
955 1 2.63268 5.61014 14.9564 -0.000992916 -0.00255794 0.000495311 
956 1 1.33579 6.85652 16.6867 -0.00537427 0.00576325 -0.00666382 
2560 1 0.0351029 16.8975 12.3035 -0.00269281 -0.00653949 0.00115692 
960 1 0.0686406 6.88148 15.7949 -0.00894748 0.00134196 0.00180474 
965 1 0.0342439 8.13555 14.9716 -0.000133623 -0.00272041 0.000277374 
970 1 1.29746 8.09728 14.0921 -0.000206799 0.0039878 0.00345958 
971 1 2.57875 8.15254 14.8929 -0.000282746 -0.00542852 -0.00607756 
972 1 2.63067 6.92101 15.8003 -0.0018136 0.00320387 -0.000425178 
974 1 2.57293 9.37174 15.8271 0.000846214 0.00551574 0.00555943 
978 1 1.33163 9.35298 16.6996 -0.00576155 0.00497609 0.00366161 
3480 1 0.138678 21.929 15.8454 -0.000149186 0.00473868 -0.0020671 
985 1 6.35042 5.67109 14.1579 0.00178542 0.00208852 0.00932323 
986 1 3.92269 5.6591 14.1222 0.00617619 -0.00068476 -0.00444002 
987 1 7.60966 5.61259 15.0321 0.000464651 0.00697364 -0.00524393 
988 1 5.15172 5.63999 15.06 -0.00132444 0.00428402 0.000752183 
990 1 5.14806 6.91491 15.8942 0.00733835 -0.00310621 0.00449843 
991 1 3.85459 8.11988 13.9925 -0.00677425 -0.00667114 -0.000479526 
992 1 5.07261 8.11481 14.9578 -0.00252837 -0.000840882 0.00368341 
993 1 3.78712 9.3696 16.7285 -0.0026462 0.000805764 -0.00144097 
994 1 3.87234 6.84922 16.7909 8.01303e-05 -0.00312539 0.0104538 
996 1 6.3821 8.13287 14.0954 0.00329539 -0.00497034 0.00132551 
997 1 7.63781 8.14934 14.9625 -0.00381115 -0.00363839 0.00254828 
998 1 7.66625 6.92119 15.9111 0.00505167 0.00307706 0.00280851 
999 1 7.63325 9.37365 15.8566 0.00022553 0.000545122 0.0016075 
1000 1 5.09184 9.31003 15.885 -0.00310127 -0.000523463 -0.00429846 
1003 2 6.40957 7.31012 16.7064 -0.00555898 -0.00176838 -0.00418644 
1004 2 6.37131 8.94987 16.6563 0.0038388 0.00128388 -0.00137214 
1009 1 8.89076 6.89764 2.56703 0.00452481 -0.00589589 -0.00457922 
1011 1 8.92611 5.58772 3.39833 -0.00360746 0.000681783 -0.000526231 
1012 1 10.1376 6.91451 1.7 -0.000108998 0 0 
1015 1 10.1652 5.61971 4.28138 0.00223255 -0.0115674 0.00870297 
1017 1 8.83954 5.60208 6.99758 -0.0059307 -0.000508303 0.00663265 
1018 1 10.1526 6.84167 5.2501 -0.000660534 0.00211815 -0.00859341 
1020 1 10.1014 5.63079 7.88135 -0.00459037 -0.00287764 -0.00335594 
1021 1 8.9168 8.13355 3.42543 0.00685373 -0.00211326 0.00342391 
1022 1 10.0617 8.09899 4.35706 0.000840808 0.00513602 0.000401336 
1023 1 8.88269 9.38494 6.11313 0.00212689 0.00819258 -0.00116551 
1024 1 8.87176 6.84653 6.10164 0.00991444 0.00164289 0.00501327 
1025 1 8.88528 8.13055 6.98199 -0.00797225 -0.011003 -0.00427506 
1026 1 10.1226 8.1305 7.85884 0.0028161 0.00333913 -0.00619431 
1037 1 8.92486 9.39204 2.55948 -0.00156938 -0.00230929 0.0118741 
1038 1 10.1376 9.34292 1.70001 0.000268028 0 0 
1040 1 10.123 9.34922 5.25666 0.00473408 -0.00293986 -0.00379254 
1041 1 8.87657 6.86134 9.66015 0.0061362 -0.00110311 -0.00138056 
1043 1 8.85336 5.60717 10.5761 0.00996951 -0.00161838 -0.00269403 
1044 1 10.1137 6.88496 8.72782 -0.00117254 -0.00676823 -0.000110882 
1047 1 10.126 5.63886 11.4113 0.00334201 -0.00943149 0.00125994 
1048 1 10.1018 6.89464 12.3109 0.00507365 -0.00176778 0.0014929 
1049 1 8.85575 8.17175 10.5628 0.00178583 0.0122422 -0.00310883 
1050 1 10.0792 8.1721 11.4315 0.00428091 -0.00767886 -0.00136228 
1051 1 8.81027 9.40498 13.2052 0.000449493 -0.00838407 0.00169183 
1052 1 8.84537 6.85079 13.2109 0.00389813 0.00826241 0.00453269 
1061 1 8.85063 9.39015 9.69714 0.00383297 0.000599213 -0.00690493 
1062 1 10.1487 9.40301 8.78466 0.00140263 0.00116697 0.00123304 
1064 1 10.1072 9.41211 12.3223 -0.00420407 0.00250256 0.000545215 
1122 1 8.8688 5.63433 14.1768 -0.00551069 0.00250269 0.00250558 
1125 1 10.1467 5.65343 14.9474 -0.00412523 -0.00475091 -0.00253816 
1128 1 10.118 6.90875 15.8444 -0.000468679 -0.00505112 -0.00666906 
1132 1 8.88205 8.10805 14.0628 0.00867986 -0.0020812 0.00586033 
1133 1 10.1315 8.11195 14.9384 -0.00175835 -0.00648642 0.00289197 
1134 1 8.92904 9.39298 16.7093 -0.00398692 0.000345352 -0.00502234 
1135 1 8.9091 6.94349 16.8057 0.00012135 0.00442102 -0.00682628 
1147 1 10.1537 9.40249 15.7831 0.00374554 0.000137761 -0.00159228 
1682 1 1.36553 10.6996 3.43138 0.00225458 -0.00127793 -0.00113246 
1684 1 0.0798279 11.9434 1.7 -3.72723e-05 0 0 
1685 1 2.58973 10.6614 4.31621 0.000175705 0.000675971 0.00051251 
1686 1 1.37286 11.8921 6.09831 0.00217974 0.000722391 -0.00116003 
1687 1 0.0980292 10.6523 4.35332 -0.00808457 -0.00228837 -0.0110635 
1688 1 1.28987 10.6075 6.97665 -0.00402502 -0.00326615 -0.00371807 
3399 1 0.00897992 20.6741 11.3795 -0.000859326 -0.00525156 0.0148691 
1691 1 2.54964 10.5824 7.86205 -0.000394804 -0.00594117 -0.00338267 
1698 1 0.0522943 13.1634 7.92026 -0.00135578 0.0021444 0.00642541 
1699 1 1.37002 11.9444 2.56467 0.00308224 -0.00464742 0.000470014 
1701 1 2.58933 11.9434 1.7 0.000460126 0 0 
1705 1 2.58874 11.8911 5.214 -0.000499101 -0.00336927 0.0043179 
1714 1 1.325 10.6667 10.548 -0.000333082 -0.000854472 -0.00295675 
1716 1 0.081976 11.8704 8.72769 -0.00360763 -0.001052 -0.00102682 
1717 1 2.57438 10.6197 11.3864 -0.00457857 0.00432702 -0.000771395 
1718 1 1.34404 11.8712 13.1862 -0.00183995 0.00598194 0.000224539 
3499 1 0.111188 24.4505 15.8169 0.00599314 0.00451935 -0.0070831 
1720 1 0.0436297 11.9153 12.311 -0.00387234 -0.0020105 -0.00625408 
1725 1 1.33242 11.9207 9.60578 -0.000692017 -0.00245346 0.00218177 
1727 1 2.53315 11.8766 8.71199 0.00615146 -0.000711445 -0.00412486 
1731 1 2.58859 11.8809 12.3167 -0.00658122 -0.0051756 0.0065731 
1737 1 3.85042 11.8683 2.60217 0.00284213 -0.00429177 -0.00215991 
1738 1 6.38778 10.6131 3.41785 -0.00690858 -0.0049726 -0.00459846 
1739 1 3.87777 10.6425 3.42952 0.00565181 -0.004341 0.00136867 
1740 1 5.10873 11.9434 1.7 -0.000592713 0 0 
1741 1 7.63029 10.598 4.29643 0.00420346 -0.00175133 0.00268044 
1742 1 6.40461 11.9113 6.09319 -0.0022422 -0.00678633 0.00201153 
1743 1 5.16817 10.6677 4.3296 0.00288218 0.0056545 -0.00229419 
1744 1 6.37332 10.6919 7.00668 1.13191e-05 -0.000926707 0.00283385 
1745 1 3.82559 10.5792 6.96374 0.0044047 0.00146955 -0.00669072 
1746 1 5.13738 11.8974 5.25145 0.00467557 0.00429238 -0.00503411 
1747 1 7.59608 10.6657 7.8762 -0.00358935 0.00578708 -0.000105884 
1748 1 5.12383 10.6605 7.86102 0.00708321 0.000214288 -0.0106709 
1752 1 3.85213 11.8427 6.09788 0.00247482 0.00395496 -0.00139643 
1755 1 6.33933 11.8697 2.53769 0.00124936 -0.00117547 0.00205216 
1757 1 7.61823 11.9434 1.7 -8.07248e-05 0 0 
1761 1 7.63723 11.8047 5.19268 -0.0122294 0.00960354 0.00488938 
1769 1 3.8237 11.8622 9.59464 0.00639458 -0.000582985 0.00133817 
1770 1 6.38402 10.6631 10.5215 -0.00555059 -0.00259771 0.00465817 
1771 1 3.84631 10.6122 10.5078 0.00201116 0.00175906 -0.00474116 
1772 1 5.07558 11.9325 8.75113 0.0034765 -0.00155078 -0.0101664 
1773 1 7.59305 10.665 11.4434 0.00140166 0.00738775 0.0041351 
1774 1 6.33277 11.8821 13.1904 -0.00325644 -0.000634708 -0.00444195 
1775 1 5.14403 10.6089 11.3644 0.00038671 -0.00114174 0.00224299 
1776 1 5.11723 11.8671 12.2781 0.00736471 -0.00937994 -0.00232767 
1780 1 3.85597 11.8652 13.1913 -0.00390371 0.00360581 0.000948007 
1781 1 6.35563 11.9625 9.66438 -0.00289164 0.00112403 -0.00129175 
1783 1 7.59093 11.8878 8.7701 0.00156287 -0.00349708 -0.00179287 
1787 1 7.64847 11.93 12.2767 -0.00189897 0.0048995 -0.00645538 
1793 1 1.31909 10.6529 14.0368 -0.00589403 0.00365181 -0.00369034 
1795 1 2.56531 10.6769 14.9735 0.0068876 -0.00283974 -0.00448903 
1796 1 1.27905 11.8855 16.683 -0.00442283 0.00152774 -0.000646898 
1690 1 0.0857247 11.8936 5.22632 0.00075732 -0.00407748 -0.00601865 
39 1 0.0324753 0.548572 11.4114 -0.00136641 -0.00356116 -0.00119545 
1812 1 2.57157 11.8988 15.8481 0.00319853 -0.00124277 -0.00448274 
1825 1 6.34908 10.6156 14.0537 -0.00313122 -0.006534 0.00580648 
1826 1 3.8691 10.5887 14.0824 0.00665945 0.00248825 -0.00334743 
1827 1 7.56744 10.6707 14.9934 -0.00112296 0.00221016 -0.00139389 
1828 1 5.11095 10.5942 14.982 0.000200513 0.0077308 -0.00191773 
1830 1 5.05131 11.8963 15.8433 0.00902093 -0.00424782 0.0011848 
1834 1 3.78607 11.8602 16.765 -0.000867405 0.00630397 0.00807389 
1838 1 7.64138 11.9775 15.8166 -0.00200168 0.00150316 0.00456961 
1849 1 8.8726 11.9298 2.57167 -0.0066475 0.00493435 0.000880044 
1851 1 8.90808 10.6403 3.43776 -0.00258079 -0.00171002 0.00639706 
1852 1 10.1376 11.9434 1.7 -0.000178694 0 0 
1855 1 10.1659 10.5768 4.32765 -0.0049536 -0.00989853 -0.00445797 
1857 1 8.88014 10.6551 7.00072 0.00526261 0.00608521 0.00160701 
1858 1 10.1431 11.8248 5.23998 -0.000987835 0.00878342 -0.00512231 
1860 1 10.1371 10.6477 7.86217 -0.00266868 -0.0022892 -0.00233652 
1864 1 8.87116 11.8651 6.09621 0.000890858 0.0141279 0.00843478 
1881 1 8.90379 11.894 9.6732 -0.00252763 -0.00243809 -0.0016465 
1883 1 8.87983 10.6466 10.5247 -0.00231033 -0.00876705 0.0029569 
1884 1 10.1352 11.8647 8.74585 -0.00597397 0.00365031 0.00484763 
1887 1 10.1308 10.6586 11.4452 0.000525365 -0.00208881 -0.001837 
1888 1 10.1855 11.9184 12.3363 0.00147622 -0.00206914 -0.000944827 
1892 1 8.94834 11.8994 13.1915 -0.00516587 -0.00215419 -0.00286026 
1962 1 8.87243 10.6526 14.0913 0.00248906 0.00651393 -0.00618048 
1965 1 10.1155 10.6448 14.9419 -0.00254266 -0.00793397 0.00369065 
1968 1 10.0914 11.8919 15.8631 -0.00679294 0.00333716 -0.00723629 
1975 1 8.85628 11.932 16.8498 -0.00455558 0.00102669 0.00211409 
1843 2 6.36986 12.3468 16.6108 0.00549787 0.0102148 -0.00351456 
223 1 11.3039 4.35071 13.2001 0.00528343 0.00328514 -0.00385674 
1042 1 11.4085 5.57058 10.4574 0.00641952 -0.00623132 0.00193637 
281 1 11.3756 0.538594 14.0966 0.004175 -0.00395289 0.000130979 
1010 1 11.4187 5.63603 3.43454 0.00188267 -0.00629881 -0.000167388 
213 1 11.3436 1.89396 9.67853 -0.0136686 0.00136238 0.00246062 
170 1 11.4516 0.568732 3.45295 -0.00252218 -0.00309865 0.00438755 
1124 1 11.3888 6.8871 16.6752 -0.00453909 0.000297967 -0.00562627 
1039 1 11.3558 9.4131 6.13823 0.00176443 -0.00762266 -0.000723246 
1850 1 11.4193 10.6079 3.42645 -0.00428047 0.000368613 0.00259608 
1027 1 11.3663 6.93063 2.58767 0.00413366 0.001585 -0.00342064 
1867 1 11.3763 11.9052 2.58258 0.00159939 -0.000858663 -0.0143858 
190 1 11.4075 3.05766 3.41878 0.00351664 -0.00812775 -0.00595618 
1063 1 11.3605 9.36465 13.218 0.00369017 0.000685518 0.00967955 
1856 1 11.3844 10.588 7.01976 -0.00437905 -0.00744132 -0.00877661 
202 1 11.3847 0.577191 10.5289 0.00107593 -0.00571355 -0.00345945 
1138 1 11.3545 8.11542 14.0346 -0.00367885 0.00457539 0.00119448 
1014 1 11.3818 6.8716 6.10206 -0.00242429 -0.00131326 0.00108118 
206 1 11.4129 1.84965 13.1846 0.000120384 0.00126641 -4.99875e-05 
1054 1 11.4198 9.39374 9.6683 0.0077165 0.00118703 0.000240453 
188 1 11.3903 4.32285 2.55608 -0.00212942 -0.000429262 -0.00303883 
187 1 11.3937 1.81578 2.53893 -0.00472263 0.000717727 0.000702307 
214 1 11.3909 4.33567 9.60549 -0.00296289 -0.00184234 -0.00176036 
199 1 11.3698 4.36691 6.06127 -0.00380489 -0.00612368 -0.00755341 
1046 1 11.3513 6.79264 13.1857 0.00175147 0.00352438 -0.0020361 
194 1 11.3466 3.12633 6.96742 -0.00311904 -0.00554579 -0.00536873 
298 1 11.3698 3.10923 14.058 0.00130299 -0.00450352 -0.00317175 
1053 1 11.4165 6.86693 9.58497 -0.00948549 -0.00315144 0.00560392 
1030 1 11.3757 8.13483 3.45051 -0.0109252 0.00333878 0.00379135 
216 1 11.3756 3.09279 10.5551 0.00361874 -0.00689108 0.000845979 
1121 1 11.346 5.59975 14.0623 0.000244848 -0.00110387 0.0026001 
1016 1 11.3688 5.58238 6.9905 -0.00710355 0.0135693 -0.00192504 
1028 1 11.4195 9.35522 2.52123 -0.0023213 -0.00343943 -0.0119426 
1882 1 11.4283 10.6208 10.5496 0.00876008 0.00116522 0.00160075 
1961 1 11.4223 10.6723 14.0653 0.00322688 -0.00397555 -0.00566327 
174 1 11.389 1.84112 6.07992 0.00243124 -0.006574 0.000937513 
1034 1 11.3822 8.12465 7.00798 0.00928184 0.00118805 0.00611792 
1056 1 11.3744 8.14413 10.5211 0.0104716 0.00399404 0.00237523 
1146 1 11.4094 9.39139 16.6342 0.00436056 0.003514 0.00471189 
1964 1 11.349 11.9466 16.7399 -0.00128492 0.00126589 -0.00512889 
284 1 11.4051 1.88658 16.6324 0.00406708 -0.0027649 -0.00282983 
1893 1 11.4024 11.9175 9.65532 -0.00942889 -0.00322039 -0.00483074 
306 1 11.371 4.39196 16.7106 6.00776e-05 -0.00844225 0.00643571 
176 1 11.3959 0.601914 7.00022 0.00469208 0.00631932 0.000293369 
1886 1 11.4568 11.9302 13.235 -0.00012328 -0.00279409 -0.00235716 
3583 1 11.4665 24.5474 13.2398 0.00504409 0.00390619 -0.00127507 
1874 1 11.3417 13.1033 7.02215 0.00900214 0.00347577 -0.00199436 
2694 1 11.3896 16.9507 6.07719 -0.00239604 0.00561671 -0.00405674 
2804 1 11.4357 16.952 16.6722 -0.00794035 0.00826991 0.0041167 
2714 1 11.4027 18.1606 6.97856 0.00202146 0.00449394 -0.00124838 
2719 1 11.3801 19.439 6.063 0.0122248 0.00406087 -0.00206104 
2818 1 11.3626 18.2353 13.9992 0.00145609 0.00503538 0.00431931 
3550 1 11.4152 23.1645 3.41845 -0.00360841 0.0139808 -0.00739362 
2690 1 11.3795 15.6725 3.49187 -0.002427 0.00504206 0.0121802 
2733 1 11.3628 16.9435 9.63874 0.00312852 0.00477111 0.00702182 
1894 1 11.327 14.3835 9.59795 0.00344703 -0.00315825 0.000904952 
2826 1 11.4462 19.4297 16.6238 -0.0071799 0.00640746 0.00487662 