ITEM: TIMESTEP
5000
ITEM: NUMBER OF ATOMS
20688
ITEM: BOX BOUNDS pp pp pp
0 50.289
0 50.289
0 243.135
ITEM: ATOMS id type xu yu zu vx vy vz 
1 1 0.31291 1.80201 2.59298 -0.00759843 6.03864e-05 -0.0059009 
2 1 2.82766 0.635153 3.48879 -0.00231281 -0.00733713 0.00439865 
3 1 0.35233 0.524627 3.45451 6.74059e-06 0.000708442 0.000143964 
4 1 1.57983 1.88561 1.7 -0.000234521 0 0 
5 1 4.08851 0.595392 4.34472 0.00548418 -0.00292839 -0.000239991 
6 1 2.87839 1.84517 6.12831 0.00354609 0.00462277 -0.00210283 
7 1 1.57375 0.575035 4.32992 0.00377271 -0.000397703 0.0073111 
8 1 2.82498 0.565292 7.00564 0.00680501 0.00361133 0.000914384 
9 1 0.290248 0.531448 7.00105 0.000928995 -0.000439097 0.00373499 
10 1 1.59543 1.79639 5.20543 0.00907304 0.000494827 0.00218437 
11 1 4.10414 0.576603 7.90993 -0.00179879 0.000704536 -0.00634295 
12 1 1.57326 0.589162 7.83969 0.00378047 -0.000390846 -0.00127311 
13 1 0.331302 3.06506 3.48618 0.00867794 -0.00379698 -0.00676728 
14 1 1.62268 3.07394 4.36348 -0.00560095 -0.00204517 0.00937309 
15 1 0.356956 4.31959 6.11553 0.00125792 -0.00303608 0.00233064 
16 1 0.278391 1.80877 6.09719 -0.000623124 0.00117727 -0.00321762 
17 1 0.335148 3.07692 6.99083 0.000483557 0.00392643 -0.000961432 
18 1 1.54637 3.08267 7.92399 0.00073586 0.00393499 -0.00615271 
19 1 2.85292 1.8415 2.54869 0.00217946 0.00148305 -0.00232924 
20 1 2.82506 4.33676 2.60736 0.00457226 -0.000939513 0.00103593 
21 1 4.08933 1.88561 1.7 0.000679498 0 0 
22 1 2.85867 3.0622 3.46326 -0.000627089 -0.00486146 0.00803763 
23 1 4.08932 4.31401 1.70001 0.00015061 0 0 
24 1 4.13813 3.12898 4.33396 0.00490122 -0.000894218 0.00739442 
25 1 4.13439 1.84288 5.23344 -0.00285933 -0.00134197 -0.00181296 
26 1 2.81801 3.11276 7.00997 0.000175485 -0.0040205 -0.00117897 
27 1 4.12971 4.3776 5.23757 0.00794559 -0.00162218 0.00829399 
28 1 4.11892 3.09248 7.88168 -0.00816356 0.00040001 0.00963543 
29 1 0.301296 4.33481 2.5814 -0.000648331 -0.00110275 -0.00468631 
30 1 1.57981 4.31402 1.70001 -0.000142949 0 0 
31 1 2.82253 4.35414 6.10985 0.0007579 0.00997091 0.00559466 
32 1 1.5895 4.32403 5.25062 0.00937586 0.000119637 0.00418367 
33 1 0.371659 1.84915 9.64212 0.0077198 0.0109463 0.00180569 
34 1 2.81495 0.559017 10.5375 0.00597646 0.00163278 -0.00163945 
35 1 0.323402 0.592207 10.4691 -0.00223191 -0.000579939 -0.00476158 
36 1 1.56891 1.81826 8.76014 -0.00283515 -0.00332098 -0.00150492 
37 1 4.13396 0.523432 11.4567 -0.000385393 -0.000539691 0.00136363 
38 1 2.83164 1.7877 13.1818 -0.00137196 -0.00159188 0.0088534 
39 1 1.60121 0.538169 11.4216 0.00033845 -0.0111963 0.000613293 
40 1 1.52206 1.85977 12.2946 0.00532885 -0.00102916 -0.00160866 
41 1 0.33363 3.09981 10.5449 -0.00156649 -0.00147535 -0.000313032 
42 1 1.54746 3.10184 11.4647 0.0046198 0.00499367 -0.00283156 
43 1 0.338128 4.32747 13.2054 0.00238468 -0.00184626 0.00196504 
44 1 0.284704 1.8618 13.1924 0.00565594 -0.00454263 0.00271947 
45 1 2.83362 1.85556 9.64471 0.010335 2.84418e-05 -0.00332254 
46 1 2.82341 4.36707 9.63875 -0.0036311 -0.000687975 -0.00111409 
47 1 4.10803 1.83519 8.77919 1.31424e-05 0.00081854 0.00140055 
48 1 2.8061 3.08116 10.5697 0.00919599 -0.00357059 -0.000204193 
49 1 4.13773 4.34997 8.80512 -0.000355662 -0.00102658 0.00122521 
50 1 4.13792 3.04279 11.4458 -0.00683854 0.00429368 -0.0015821 
51 1 4.16119 1.76736 12.3307 0.00367688 0.00298153 -0.00632596 
52 1 4.12007 4.30821 12.3467 -0.000630197 -0.00731988 0.0118496 
53 1 0.316617 4.36857 9.6857 -0.00781355 0.00131711 -0.00453904 
54 1 1.57615 4.32393 8.77134 -0.00145443 -0.00237045 0.000368606 
55 1 2.82905 4.34953 13.2267 0.00313148 0.00122802 -0.000199023 
56 1 1.56211 4.35811 12.3039 -0.00547103 -0.00639492 0.0010527 
57 1 5.40071 1.81637 2.5957 -0.00494 0.00261135 -0.0017354 
58 1 7.87488 0.578755 3.4049 0.00552152 -0.00339919 0.00565502 
59 1 5.33421 0.548778 3.43216 0.00669293 -0.00115216 -0.00783873 
60 1 6.60873 1.88561 1.7 3.50421e-05 0 0 
61 1 9.13663 0.552129 4.24002 0.00306606 0.00478668 -0.00752176 
62 1 7.90118 1.7911 6.08822 3.72727e-06 -0.00195086 0.00581468 
63 1 6.66688 0.538952 4.29963 -0.00298112 0.00846155 -0.00481197 
64 1 7.92077 0.528129 6.9827 -0.00644495 0.00147235 -0.00409004 
65 1 5.38783 0.561546 7.0564 0.00116797 0.000507905 -0.00574613 
66 1 6.62742 1.82497 5.24484 -0.000439012 -0.00279461 -0.00477404 
67 1 9.17181 0.536949 7.8458 -0.00828863 -0.00249941 0.0020252 
68 1 6.68693 0.573211 7.90472 -0.000937192 -0.00460416 0.00142008 
69 1 5.36694 3.10165 3.48281 0.00517384 0.000118533 0.00754419 
70 1 6.62414 3.10877 4.40129 0.00116762 0.00176503 0.012033 
71 1 5.35431 4.32257 6.09507 0.00141939 -0.00404453 -0.00308587 
72 1 5.40034 1.84784 6.11802 0.000290201 -0.00108065 -0.00274798 
73 1 5.37419 3.07537 6.99724 -0.00103486 0.00104006 -0.00345128 
74 1 6.60729 3.06234 7.92417 0.00163313 0.001037 0.000691843 
75 1 7.83947 1.87144 2.58026 -0.000334659 0.000777865 0.00388235 
76 1 7.83279 4.34781 2.58006 -0.0067525 -0.00126482 -0.00635845 
77 1 9.11823 1.88561 1.7 3.39981e-05 0 0 
78 1 7.84445 3.1232 3.50621 -0.00484831 0.00252871 0.00295528 
79 1 9.11822 4.31401 1.70001 -0.000411735 0 0 
80 1 9.12753 3.06073 4.31001 -0.00250504 -0.00143435 -0.00165201 
81 1 9.16097 1.78763 5.19277 -0.00384957 0.0015385 0.00461244 
82 1 7.83027 3.05444 7.01298 -0.00285505 -0.0076639 -0.00817656 
83 1 9.1334 4.33629 5.24588 -0.00460819 0.00518433 -0.0014902 
84 1 9.12519 3.13516 7.83634 -0.00348496 -0.00475865 0.000239207 
85 1 5.4016 4.30887 2.58989 -0.00414835 0.00552372 -0.0068916 
86 1 6.60871 4.31402 1.70001 2.77159e-05 0 0 
87 1 7.81378 4.3218 6.11166 -0.00415274 -0.00284281 3.53123e-06 
88 1 6.60564 4.35616 5.23141 -0.00232718 -0.00114716 -0.00340168 
89 1 5.36616 1.85033 9.64615 -0.00166375 0.000478046 0.0027212 
90 1 7.83254 0.514464 10.5149 -0.00901594 0.00379398 0.00129477 
91 1 5.40373 0.57026 10.522 -0.000517323 0.0088283 0.0027463 
92 1 6.62461 1.8099 8.80931 0.00674603 0.00121458 0.00295778 
93 1 9.09992 0.510637 11.4148 0.00309229 -0.00449176 0.00368129 
94 1 7.84184 1.83913 13.1655 0.00400322 0.00241088 -0.0044682 
95 1 6.618 0.54623 11.3982 0.00584986 -0.0106158 0.00400824 
96 1 6.6686 1.80755 12.2755 0.00699268 0.00312305 0.00382877 
97 1 5.34845 3.04718 10.5414 6.89799e-05 0.00306655 -0.0049328 
98 1 6.57893 3.04932 11.4313 0.00221261 0.00894921 0.00495408 
99 1 5.40722 4.28081 13.1928 -0.00280102 0.00244926 0.00103982 
100 1 5.43012 1.77111 13.2097 0.00558011 -0.00437188 -0.00608603 
101 1 7.85056 1.80358 9.66232 0.00470879 0.00101982 -0.000933902 
102 1 7.85749 4.34992 9.64243 0.00111819 0.000240196 -0.00336436 
103 1 9.14674 1.84472 8.73641 -0.00413259 0.00570674 0.00577872 
104 1 7.86578 3.02369 10.5665 -0.00364034 -0.00233651 -0.00341019 
105 1 9.11495 4.31545 8.72142 -0.000618753 -0.00528396 0.00246214 
106 1 9.13181 2.98468 11.4298 0.00392051 -0.00756705 -0.0018267 
107 1 9.13243 1.71446 12.3327 0.00920877 0.00551834 0.0110337 
108 1 9.16174 4.25746 12.2784 0.000113029 0.00188169 -0.000286632 
109 1 5.39445 4.37234 9.67155 0.000700512 0.00123794 -0.00705195 
110 1 6.5934 4.34311 8.77285 0.00507118 -0.00270038 -0.0050631 
111 1 7.88805 4.30319 13.1801 -0.000809188 -0.00573688 0.00713707 
112 1 6.67961 4.3432 12.3414 -0.00269691 -0.00268485 0.00166218 
113 1 2.8063 0.529345 14.0493 -0.000903364 -0.00134274 0.000836034 
114 1 0.266455 0.569709 14.0296 0.00266299 -0.00100888 -6.89421e-05 
115 1 4.05601 0.555849 14.9405 -0.00134663 -0.00583547 0.00550925 
116 1 2.83184 1.8123 16.6583 -0.00457599 -0.0057008 0.00245208 
117 1 1.49876 0.511513 14.9253 0.00139536 -0.00260078 0.0085667 
120 1 1.52738 1.74924 15.8466 0.00223035 0.00172597 -0.000206711 
124 1 0.345051 3.06369 14.0761 0.0035385 0.00515724 -0.0023568 
125 1 1.54744 3.01956 14.9377 0.00748617 -0.0035931 -0.00340119 
126 1 0.338571 4.29774 16.7743 -0.00414106 -0.0053122 -0.00078827 
127 1 0.276019 1.81416 16.7714 -0.00549779 0.000122702 -0.00230695 
130 1 2.8714 3.11075 14.0967 0.00910301 -0.00241075 0.00123942 
131 1 4.11708 3.09393 14.9462 -0.00558597 -0.00157145 0.00455228 
132 1 4.04796 1.87945 15.8217 -0.00658102 0.00628577 -0.00172374 
134 1 4.12903 4.35539 15.8404 0.00288186 -0.00168288 0.00484865 
138 1 2.84659 4.3151 16.6538 0.00202509 -0.00217129 -0.00313504 
139 1 1.59928 4.27233 15.8188 0.00296255 0.00392321 -0.00683306 
145 1 7.8096 0.535374 14.101 -0.00122342 -0.00343438 0.00454648 
146 1 5.36593 0.502022 14.1752 -0.00557267 -0.0045423 -0.00670065 
147 1 9.0851 0.550631 15.007 0.00470301 -0.00539719 0.0021203 
148 1 6.63661 0.482545 15.0372 0.00771637 0.00384145 0.00171164 
150 1 6.64241 1.82782 15.8763 -0.00028939 -0.000233848 -0.00246754 
151 1 5.3679 2.98834 14.1013 0.00665425 0.005239 0.0039382 
152 1 6.58731 3.10384 14.9615 0.0028339 0.00323367 0.00165597 
153 1 5.33857 4.34894 16.7575 -0.00256603 -0.000528216 -0.00158675 
154 1 5.3283 1.85281 16.756 0.000638197 0.000424588 0.00710791 
156 1 7.84428 3.08447 14.0722 0.00497837 -0.0112655 0.00374538 
157 1 9.17515 3.02108 14.8952 -0.00590666 -0.00665301 -0.00567327 
158 1 9.16615 1.83344 15.8783 0.000965603 -0.000239169 -0.00738132 
159 1 9.109 4.25058 15.8807 0.00829741 -0.0020406 -0.00215709 
160 1 6.58465 4.32274 15.8762 -0.00213461 0.00970687 -0.0088741 
163 2 7.88751 2.25861 16.7141 -0.00377972 0.00375228 -0.000598573 
164 2 7.81455 3.84458 16.6933 0.00349438 -0.00127847 -0.00879584 
169 1 10.4349 1.8534 2.53238 0.00386326 0.00195641 -0.00181969 
171 1 10.3981 0.603542 3.40554 0.00431882 0.000654432 0.00127103 
172 1 11.6376 1.88561 1.7 0.000403507 0 0 
175 1 11.6094 0.62328 4.34866 0.000313589 -2.40069e-05 0.00224641 
177 1 10.3636 0.60297 6.88623 0.00169877 -2.92765e-05 0.00615442 
178 1 11.6996 1.89276 5.14899 0.00150086 -0.000159136 0.000507109 
180 1 11.6153 0.519091 7.87254 -0.00244397 0.00233725 0.00277246 
181 1 10.3799 3.09905 3.39208 0.0129654 0.00181047 0.00493053 
182 1 11.6611 3.1402 4.29737 -0.00162362 0.00569802 0.00328213 
183 1 10.3437 4.34236 6.14436 -0.000203308 -9.54912e-05 0.000965866 
184 1 10.4018 1.86137 6.01465 0.0111243 0.0042829 0.00800254 
185 1 10.3477 3.07926 6.94837 0.00383503 0.00431395 0.00145805 
186 1 11.6261 3.06811 7.87522 0.00135385 0.00269313 0.00985264 
197 1 10.3773 4.34354 2.528 0.00108472 1.83783e-05 0.00782485 
198 1 11.6376 4.31402 1.70001 0.000348484 0 0 
200 1 11.6497 4.32888 5.24241 0.00442418 -0.00112469 -0.00300332 
201 1 10.371 1.83777 9.66316 -0.000146592 0.000439483 -0.00617649 
203 1 10.3464 0.536306 10.498 -9.36131e-05 -0.000460699 0.00174661 
204 1 11.6837 1.81325 8.76589 -0.00295017 0.00849697 0.00569353 
207 1 11.6784 0.541012 11.4012 -0.00336127 0.00355963 0.00378238 
208 1 11.6562 1.78656 12.2849 0.00329784 -0.00626848 0.00921223 
209 1 10.4076 3.06158 10.5603 -0.000531679 0.000947638 0.0048602 
210 1 11.5837 3.04828 11.4635 -0.000520103 0.00431701 0.00348735 
211 1 10.3869 4.34 13.2092 0.00544046 0.00109764 0.00304752 
212 1 10.4262 1.76084 13.18 -0.000970774 -0.00736114 0.00476047 
221 1 10.3532 4.34024 9.64678 -0.000923791 -0.00218845 0.00379963 
222 1 11.6647 4.2833 8.74329 0.000196903 -0.00484939 0.0014352 
224 1 11.6404 4.34831 12.2973 0.00302068 0.000424217 -0.00080258 
282 1 10.3871 0.578839 14.1191 0.00706303 -0.000602291 -0.00099303 
285 1 11.648 0.564945 14.9827 0.00404094 -0.00703861 -0.000733216 
288 1 11.692 1.76605 15.846 0.00928246 0.00423759 0.00414882 
292 1 10.3842 3.04828 14.0258 0.00188901 0.00608133 0.00250419 
293 1 11.6157 3.03291 14.928 0.00218656 -0.00585233 -0.0153876 
294 1 10.3494 4.29965 16.7632 -0.00460564 -0.00498902 0.00623174 
295 1 10.4552 1.793 16.7343 -3.82709e-05 -0.005335 0.00245638 
307 1 11.5859 4.30113 15.7824 0.00307137 -0.00737909 0.0048547 
841 1 0.325818 6.92447 2.5465 -0.0044433 -0.00168024 -0.00509355 
842 1 2.87451 5.60156 3.45897 0.00969145 0.00130598 -9.01584e-05 
843 1 0.356679 5.59977 3.47199 0.00281849 -0.00208417 2.97884e-05 
844 1 1.57983 6.91451 1.7 -6.85323e-05 0 0 
845 1 4.08895 5.61644 4.34361 -0.0140812 -0.000604912 5.07026e-05 
846 1 2.85883 6.83018 6.09404 -0.0020236 -0.00486326 0.00316912 
847 1 1.63214 5.56878 4.34602 0.0016018 0.00145193 -0.0048378 
848 1 2.80643 5.59421 7.02906 -0.00642897 0.00124309 -0.00209673 
849 1 0.294545 5.63337 6.96919 -0.00257326 -0.00249653 0.00958746 
850 1 1.61117 6.85233 5.23095 -0.002467 -0.00246894 0.000555603 
851 1 4.10182 5.61486 7.89855 0.00317634 -0.00961279 -0.000131642 
852 1 1.5734 5.59045 7.84957 0.00334593 -0.0035917 0.00258676 
853 1 0.335691 8.14677 3.48624 -0.000440051 -0.00359733 -0.0014829 
854 1 1.60394 8.08568 4.32249 0.00487549 -0.00516604 -0.0087901 
855 1 0.275486 9.38064 6.04644 -0.00175218 -6.79641e-05 -0.00464248 
856 1 0.317755 6.91004 6.10447 -3.32501e-05 -0.00130157 -0.00278324 
857 1 0.320175 8.14028 6.97277 -0.00187809 0.00181092 -0.000619007 
858 1 1.54797 8.15836 7.84738 -0.0124373 -0.0064881 -0.000703673 
859 1 2.82536 6.91607 2.55463 -0.00469558 -0.000897214 0.00326358 
860 1 2.81038 9.40012 2.55628 -0.00320705 0.00248027 0.000845088 
861 1 4.08933 6.91451 1.7 -0.000391488 0 0 
862 1 2.83949 8.13543 3.4467 -0.000295399 -0.000141262 -0.00262238 
863 1 4.08932 9.34291 1.70001 -0.000405267 0 0 
864 1 4.07751 8.14356 4.35291 0.00133091 0.000811902 0.00398747 
865 1 4.12736 6.89616 5.23238 0.0061773 0.00266531 0.00193383 
866 1 2.8581 8.1209 6.97319 0.00201206 -0.00544295 0.00233366 
867 1 4.09541 9.41798 5.20885 0.00300392 -0.00504379 -0.00356393 
868 1 4.12621 8.19157 7.856 9.12767e-05 -0.00474073 0.00235143 
869 1 0.279323 9.39092 2.57433 0.001428 0.00446773 0.00354981 
870 1 1.57981 9.34292 1.70001 -0.000594749 0 0 
871 1 2.84592 9.36554 6.08009 -0.0108434 0.000421449 0.000462293 
872 1 1.59214 9.35845 5.22626 -0.00163502 -0.00531244 0.0070573 
873 1 0.354292 6.867 9.68637 0.000405664 -0.0080389 0.00395724 
874 1 2.858 5.58949 10.5603 0.00149179 -0.00315656 0.000612565 
875 1 0.322249 5.57879 10.5617 -0.00608275 0.00392459 -0.00175907 
876 1 1.58639 6.85528 8.79587 0.00165695 -0.000158512 -0.00228821 
877 1 4.13187 5.53025 11.4908 0.00171526 0.00872985 -0.00337672 
878 1 2.86887 6.77719 13.1993 -0.000244255 -0.000198975 0.00510482 
879 1 1.59446 5.59248 11.4301 0.00148721 0.00347297 0.00406526 
880 1 1.60504 6.84741 12.2889 0.00394169 0.0031733 -0.0117426 
881 1 0.305502 8.12949 10.5385 -0.00121036 0.0042583 0.00383255 
882 1 1.5722 8.09945 11.4484 0.00568265 0.00528079 0.00304453 
883 1 0.280573 9.40874 13.1374 -0.00328094 -0.0053533 0.00356551 
884 1 0.320063 6.86992 13.1959 0.00357983 -0.00622441 0.0047241 
885 1 2.84896 6.88353 9.72452 -0.00716685 0.00514988 -0.00496065 
886 1 2.8396 9.35703 9.63547 0.00818193 -0.00294309 0.00514925 
887 1 4.12576 6.86447 8.80756 -0.00820274 -0.00108448 0.00117286 
888 1 2.82834 8.10253 10.5395 -0.00148134 0.00614568 0.000946438 
889 1 4.08272 9.42398 8.75334 0.0049215 -0.00283358 0.00218826 
890 1 4.07989 8.12094 11.3985 -0.00797655 -0.00139964 0.00210796 
891 1 4.10551 6.85415 12.3112 0.00537033 0.000787508 0.00540322 
892 1 4.06185 9.38674 12.307 0.00261313 0.0051622 -0.00138828 
893 1 0.326294 9.3739 9.67867 0.00414476 0.00115152 0.00417081 
894 1 1.57472 9.41963 8.74275 0.000907118 -0.00198186 -0.0001973 
895 1 2.8073 9.3326 13.2041 0.00328212 0.000764115 0.000113745 
896 1 1.56026 9.34573 12.3042 -0.00366394 0.00601496 0.00222134 
897 1 5.31665 6.83195 2.54223 -0.00301285 -0.0035818 -0.0071195 
898 1 7.84645 5.63762 3.4281 0.00484072 0.0044609 -0.00459803 
899 1 5.37619 5.62462 3.43808 0.00218105 0.00347588 0.000513211 
900 1 6.60873 6.91451 1.7 -0.000297905 0 0 
901 1 9.0676 5.60498 4.26333 0.00161881 0.00303828 0.00298218 
902 1 7.86511 6.92087 6.099 0.00310064 -0.000882242 -0.00656407 
903 1 6.58744 5.66163 4.32997 -0.00153997 -0.00187737 0.00371837 
904 1 7.85551 5.63834 6.96161 0.00344591 0.000345474 -0.000588886 
905 1 5.33647 5.63702 6.98581 -0.00374996 -0.00650595 -0.00387686 
906 1 6.57244 6.92695 5.21813 -0.0053513 0.000401184 -0.00525324 
907 1 9.08838 5.6259 7.85282 0.00104202 -0.00124531 -0.00213587 
908 1 6.62037 5.61407 7.8732 -0.00349394 0.000144009 -0.000941741 
909 1 5.3193 8.0689 3.44257 0.00835228 -0.000401755 -0.000284996 
910 1 6.58654 8.15112 4.34304 -0.00554713 -0.00215221 0.00118495 
911 1 5.35716 9.41387 6.08615 0.000692188 -0.0042641 -0.0106652 
912 1 5.38544 6.89466 6.11832 0.00813083 0.00339221 -0.00244836 
913 1 5.3745 8.13852 6.96537 0.00530577 -0.00770767 -0.00995061 
914 1 6.6614 8.13008 7.82228 -0.00258664 -0.00165473 0.009949 
915 1 7.86039 6.92471 2.55117 0.00195534 -0.00839355 -0.00121249 
916 1 7.85823 9.35453 2.54297 0.00248205 -0.000105256 0.000355198 
917 1 9.11823 6.91451 1.7 0.000208551 0 0 
918 1 7.84676 8.12113 3.42572 -0.00611566 -0.00521893 -0.0058355 
919 1 9.11822 9.34291 1.70001 9.93249e-05 0 0 
920 1 9.06538 8.16168 4.32719 -0.00478023 -0.00294252 -0.00222332 
921 1 9.09499 6.89786 5.18706 -0.00623301 0.00116527 -0.000893626 
922 1 7.90714 8.1144 6.97133 -0.00608997 -0.00812467 -0.00369829 
923 1 9.10948 9.39228 5.19438 -0.00408941 -0.00347753 -0.00179086 
924 1 9.11466 8.09292 7.86805 0.00287228 0.00109157 -0.00663107 
925 1 5.31886 9.30235 2.55696 -0.0047203 -0.000851596 -0.0049898 
926 1 6.60871 9.34292 1.70001 -0.000391661 0 0 
927 1 7.86822 9.3582 6.08257 -0.00382151 0.00233025 0.0108827 
928 1 6.60147 9.3737 5.21449 0.00384834 -0.000389948 0.0112471 
929 1 5.42368 6.81316 9.63512 -0.00136638 -0.00230458 -0.00644337 
930 1 7.88553 5.59165 10.508 -0.00281941 -0.00489198 0.00101405 
931 1 5.37926 5.6115 10.5775 -0.00305603 0.00421961 0.0010557 
932 1 6.60732 6.86653 8.73731 0.000613586 -0.00417001 -0.00434109 
933 1 9.13473 5.56034 11.417 0.0031805 -0.0126723 -0.00662426 
934 1 7.83226 6.86876 13.1915 -0.00162126 0.00781406 -0.00234006 
935 1 6.6141 5.62933 11.441 0.000138275 0.00040781 0.00320284 
936 1 6.59524 6.88882 12.2985 0.00335821 0.00579888 0.00353396 
937 1 5.35505 8.10542 10.4778 -0.00179206 -0.00315492 -0.00118211 
938 1 6.56936 8.07798 11.4112 -0.00315127 -0.000214211 0.00835136 
939 1 5.36212 9.38851 13.1859 -0.00559272 0.00091047 -0.00194746 
940 1 5.33027 6.84407 13.2146 0.00409136 0.00200858 -0.00793139 
941 1 7.82806 6.87483 9.65932 0.00327018 0.00260589 -0.00244139 
942 1 7.82 9.38009 9.62896 0.00410904 -0.00229153 0.00573151 
943 1 9.07061 6.90351 8.79415 -0.00392961 0.00460266 -0.00728055 
944 1 7.84459 8.08662 10.5265 0.00324112 0.000448131 0.00508646 
945 1 9.12765 9.36435 8.71668 -0.00368314 -0.00412391 -0.00110788 
946 1 9.08896 8.05992 11.4455 -0.00210862 0.00414732 -0.00675004 
947 1 9.14308 6.83209 12.3345 0.00191873 -0.00166324 -0.0102891 
948 1 9.091 9.38448 12.2916 -0.000585188 -0.000979004 -0.00379458 
949 1 5.31607 9.41177 9.61739 -0.0017175 0.000247103 -0.00475415 
950 1 6.58646 9.3718 8.72181 -0.00276805 0.00263938 -0.00311762 
951 1 7.83061 9.34369 13.192 0.00596973 0.00361271 0.00485601 
952 1 6.57243 9.35286 12.2591 0.00514283 -0.00496863 -0.00344441 
953 1 2.85935 5.5728 14.1065 -0.00821504 0.00277155 -0.00213495 
954 1 0.278112 5.60124 14.1454 0.00260227 0.00538686 0.0051909 
955 1 4.11925 5.54433 14.9239 -0.00475945 0.0113087 0.000695679 
956 1 2.82772 6.81475 16.6592 -0.00389613 0.00213308 -0.00261589 
957 1 1.5414 5.57162 14.9641 -0.00839564 -0.000524293 -0.00133732 
960 1 1.58115 6.83434 15.8388 -0.00510864 0.00363589 3.77685e-05 
964 1 0.276673 8.12702 14.049 0.00271971 0.000370209 0.000640691 
965 1 1.507 8.07146 14.9401 -0.00356566 0.00584668 -0.00077374 
966 1 0.293736 9.44954 16.72 0.00128505 0.000330268 0.00529547 
967 1 0.327629 6.89741 16.7996 -0.00570761 0.00188869 0.000487314 
970 1 2.80575 8.07069 14.0562 -0.000380851 -0.00698516 -0.00418644 
971 1 4.06438 8.0896 14.9711 0.00596182 -0.00193844 0.00482851 
972 1 4.08962 6.81212 15.8039 -0.0010152 0.00541798 0.00353322 
974 1 4.13616 9.37448 15.8389 0.00131982 0.00157867 0.00207951 
978 1 2.84212 9.40752 16.6221 -0.00677347 -0.0121744 0.00694094 
979 1 1.54787 9.38 15.7876 0.000516423 -0.00101613 0.000166673 
985 1 7.88705 5.58898 14.0496 0.0112808 0.000626997 0.00285807 
986 1 5.3933 5.55915 14.0699 -0.004689 0.00263775 0.00527507 
987 1 9.13716 5.63347 15.014 -0.00609541 0.00172582 0.00230567 
988 1 6.68031 5.57344 15.0015 -0.00427635 -0.00565524 -0.000961787 
990 1 6.53324 6.87823 15.8682 0.0112101 -0.0133294 0.00132949 
991 1 5.34444 8.11348 14.072 0.00256454 -0.00139247 -0.00413472 
992 1 6.58846 8.15219 14.9864 0.00372169 0.00575277 -0.00163344 
993 1 5.31597 9.36187 16.7741 0.00649815 -0.00612786 -0.00496161 
994 1 5.2848 6.82783 16.7246 -0.00394758 -0.000996744 0.00221335 
996 1 7.87788 8.1095 14.1185 7.12516e-05 -0.000395002 -0.000319811 
997 1 9.15517 8.14224 14.9159 -0.00370119 -0.00461698 -0.00824197 
998 1 9.13518 6.90216 15.8463 0.00612287 0.00412762 0.00184441 
999 1 9.13016 9.329 15.8599 -0.000245187 -0.00246295 0.00184303 
1000 1 6.57543 9.32392 15.8951 0.00160378 -0.0117561 0.0020687 
1003 2 7.84718 7.26934 16.6371 0.00130254 0.00383339 -0.00649654 
1004 2 7.82351 8.94435 16.6416 -0.00738957 -0.00286604 0.00043503 
1009 1 10.4145 6.87269 2.54287 -0.00545151 0.0091339 -0.00112316 
1011 1 10.3698 5.58083 3.36046 0.00302483 0.0016242 -0.00669158 
1012 1 11.6376 6.91451 1.7 0.000457605 0 0 
1015 1 11.6257 5.61053 4.32297 0.00513797 0.0010679 -0.00213868 
1017 1 10.3969 5.59776 6.97733 -0.00268489 0.00285504 0.00141375 
1018 1 11.6277 6.88511 5.20998 0.00804489 -0.00123519 -6.78004e-05 
1020 1 11.661 5.57707 7.87259 -0.00938781 0.00610799 0.00388863 
1021 1 10.3503 8.1945 3.47897 0.00574354 -0.000601037 0.00168819 
1022 1 11.6382 8.13487 4.35467 0.00308697 -0.000359372 0.00375585 
1023 1 10.3827 9.39677 6.12531 0.000748918 -0.00651245 -0.00743802 
1024 1 10.3876 6.83693 6.05479 0.000317657 0.00470052 -0.00473358 
1025 1 10.3875 8.1213 6.98157 -0.0045561 0.00562527 0.000126533 
1026 1 11.596 8.11883 7.87809 0.00466535 0.000830041 0.0108609 
1037 1 10.4017 9.41904 2.54257 0.00362796 -0.00153845 -0.00353284 
1038 1 11.6376 9.34292 1.70001 0.00040008 0 0 
1040 1 11.6258 9.33788 5.26156 -0.012912 0.00450501 -0.00249724 
1041 1 10.3459 6.84652 9.66335 0.000236333 -0.00272072 0.00921117 
1043 1 10.3901 5.58869 10.5229 0.000213828 -0.00400761 0.000923546 
1044 1 11.5904 6.84308 8.76394 -0.000571261 0.00158168 0.00420095 
1047 1 11.6141 5.65258 11.3787 0.00408321 0.000196015 -0.000174809 
1048 1 11.6769 6.87905 12.3087 -0.000591845 -0.00647138 0.000823653 
1049 1 10.3593 8.10276 10.5874 -0.00281378 -0.000429835 0.000714269 
1050 1 11.6241 8.1631 11.4514 -0.00474653 -0.00307245 0.000441927 
1051 1 10.3667 9.45624 13.1435 0.00143836 -0.00244732 -0.00177198 
1052 1 10.3916 6.80615 13.2437 -0.000466821 0.00423683 0.00103449 
1061 1 10.3445 9.36858 9.66434 0.00301516 0.00262171 -0.00194719 
1062 1 11.6155 9.39011 8.75797 -0.00620593 -0.00383031 -0.000294581 
1064 1 11.6211 9.44367 12.3367 0.00410861 0.00128094 0.00313543 
1122 1 10.3823 5.5569 14.1026 -0.000661059 -0.000886228 -0.00939247 
1125 1 11.6525 5.54031 14.9013 0.000539068 0.00419169 0.00212002 
1128 1 11.6298 6.82103 15.7793 0.00422535 -0.00209743 0.000364929 
1132 1 10.3926 8.14662 14.0164 0.010613 0.00357747 -0.00686258 
1133 1 11.613 8.09161 14.8769 -0.00039345 0.00918429 -0.00881047 
1134 1 10.4049 9.32731 16.7122 -0.00578351 0.000224051 -0.00422825 
1135 1 10.3658 6.85004 16.7778 0.00363134 0.00198384 -0.00271388 
1147 1 11.6486 9.33611 15.8198 0.0041441 0.00913727 -0.00272419 
1681 1 0.273063 11.9205 2.53395 0.00430313 -0.00649181 -0.00024428 
1682 1 2.81036 10.69 3.44873 0.00228421 0.00311656 0.000753121 
1683 1 0.257328 10.6893 3.47744 -0.00403508 -0.00331904 0.00651423 
1684 1 1.57983 11.9434 1.7 -0.000312417 0 0 
1685 1 4.08881 10.6581 4.33133 -0.000181452 -0.00306423 0.000816615 
1686 1 2.84344 11.9066 6.12048 0.00221338 0.00458745 0.00190867 
1687 1 1.55478 10.6441 4.33356 -3.1098e-05 0.00127725 -0.0120473 
1688 1 2.8377 10.6835 6.95412 -0.00183247 0.00325395 0.00409015 
1689 1 0.32817 10.5938 6.95921 0.00153783 0.00288695 0.00496858 
1690 1 1.56225 11.8785 5.23344 0.00577541 0.0077144 -0.0010951 
1691 1 4.09066 10.7071 7.88189 -0.00598592 0.00719032 -0.00192348 
1692 1 1.5854 10.6888 7.82178 0.000358235 -0.00625763 0.00391263 
1696 1 0.323488 11.8593 6.08684 0.000672892 -0.00589066 0.00357443 
1699 1 2.79051 11.9237 2.62325 -0.000306739 -0.000853022 -0.00528963 
1701 1 4.08933 11.9434 1.7 -0.000394902 0 0 
1705 1 4.08168 11.9468 5.2111 0.00265588 0.00160546 -0.00440644 
1713 1 0.321229 11.8932 9.67102 -0.00269154 0.00201429 0.00960955 
1714 1 2.77499 10.6211 10.5744 0.00342917 -0.000384592 -0.0117982 
1715 1 0.333591 10.6275 10.5726 -0.00243016 -0.00213053 -0.000376267 
1716 1 1.54626 11.913 8.7347 0.00316405 0.00276767 0.00314722 
1717 1 4.04544 10.6463 11.4508 0.00315085 -0.00267004 -0.00112044 
1718 1 2.79442 11.9078 13.2209 0.00584569 -0.00161921 -0.0024177 
1719 1 1.55466 10.6345 11.4484 -0.00376531 -0.00329329 -0.00682257 
1720 1 1.62027 11.9031 12.287 0.00340169 0.000296527 0.00121079 
1724 1 0.299462 11.9819 13.165 -7.88088e-05 -0.00851851 0.00560701 
1725 1 2.79801 11.8896 9.63987 -0.000957411 -0.00194852 0.00875444 
1727 1 4.0838 11.9004 8.79746 -0.00705147 0.00312563 -0.00337384 
1731 1 4.04821 11.8723 12.3315 -0.00114127 -0.000468718 -0.00276399 
1737 1 5.3606 11.8955 2.56441 -0.001172 -0.00122044 0.00888857 
1738 1 7.79791 10.6164 3.41236 -0.00227696 0.0102653 0.00287701 
1739 1 5.30498 10.6099 3.44731 -0.00405815 0.000974325 0.00420064 
1740 1 6.60873 11.9434 1.7 6.18422e-05 0 0 
1741 1 9.09303 10.6507 4.30719 0.00120666 -0.00298044 0.00261684 
1742 1 7.90141 11.9095 6.10459 0.00242009 0.00530454 -0.000177246 
1743 1 6.57276 10.6371 4.34623 -0.00630587 0.000269252 -0.00298378 
1744 1 7.88306 10.6306 6.98234 0.00657816 -0.00268882 0.00415076 
1745 1 5.36354 10.6281 7.01369 0.00244581 0.00219953 0.00255233 
1746 1 6.64144 11.8632 5.19902 -0.00650246 0.00296127 0.00278661 
1747 1 9.15608 10.6611 7.90797 -0.0023521 -0.00427564 0.000205425 
1748 1 6.63332 10.6682 7.84205 -0.00474588 0.0079547 -0.00653819 
1752 1 5.40551 11.9165 6.09126 -0.00276427 0.00197817 -0.00205914 
1755 1 7.87457 11.8759 2.55876 0.00149361 -0.00214486 0.00475497 
1757 1 9.11823 11.9434 1.7 0.000267036 0 0 
1761 1 9.14243 11.9023 5.24013 0.00231204 0.00447868 0.000238865 
1769 1 5.343 11.9137 9.66049 -0.00680381 -0.00403743 -0.0107193 
1770 1 7.83536 10.6662 10.4989 -0.00595868 0.00314374 0.00363554 
1771 1 5.30467 10.6455 10.5687 -0.00714214 -0.001918 0.00316643 
1772 1 6.58034 11.8744 8.79042 -0.00523642 0.000713706 0.00269234 
1773 1 9.1047 10.6131 11.3393 0.000975821 -0.00666255 0.000853985 
1774 1 7.82391 11.8998 13.2004 0.00307309 0.00118144 0.00270723 
1775 1 6.57981 10.6355 11.3812 0.00487862 -0.00487923 0.00369853 
1776 1 6.54899 11.8594 12.3085 0.00519519 0.00291479 -0.00469564 
1780 1 5.30121 11.9257 13.2364 4.10761e-05 -0.00251251 0.000884464 
1781 1 7.82539 11.922 9.62324 -0.000284873 -0.000933386 -0.00168369 
1783 1 9.13441 11.8869 8.78447 -0.00784749 0.00869687 0.0011743 
1787 1 9.06983 11.8489 12.2849 -0.000711394 0.00141491 0.00120831 
1793 1 2.82111 10.6162 14.0665 0.00321901 -0.00360901 -0.00291639 
1794 1 0.246957 10.6806 14.0404 0.00481383 -0.00295732 -0.00336144 
1795 1 4.11702 10.6027 14.9645 -0.00583755 0.00588116 -0.0036276 
1796 1 2.82706 11.9078 16.6543 0.00157893 -0.000641054 -0.00841849 
1797 1 1.5288 10.6087 14.9143 0.00116368 -0.00400982 -0.00267625 
1800 1 1.53635 11.8967 15.834 0.00164519 -0.000765229 0.00207808 
1807 1 0.257369 11.8964 16.827 0.00443131 -0.00251526 0.00834712 
1812 1 4.08097 11.8618 15.8678 -0.00509971 -0.00388823 0.00477905 
1825 1 7.85129 10.6038 14.0859 0.00998304 0.001971 0.000182741 
1826 1 5.38147 10.6357 14.1285 0.00208222 0.00637787 -0.00262139 
1827 1 9.13223 10.6101 14.9895 -0.00769421 0.00330523 0.00259481 
1828 1 6.62644 10.6339 15.0209 -0.00387733 0.000512627 -0.00966447 
1830 1 6.6008 11.889 15.8955 0.00251535 0.000383559 -0.00154225 
1834 1 5.31852 11.8854 16.7622 0.00530167 -0.00225078 0.00251758 
1838 1 9.13442 11.9256 15.86 -0.00581049 0.000682892 -0.0035547 
1849 1 10.3995 11.9059 2.57245 0.00121038 -0.00619243 0.00380972 
1851 1 10.3396 10.6231 3.47609 -0.00165738 -0.00210828 -0.00407349 
1852 1 11.6376 11.9434 1.7 5.80512e-05 0 0 
1855 1 11.6058 10.5825 4.39322 -0.00119362 0.00275948 -0.00133001 
1857 1 10.3969 10.6703 7.02035 -0.00668458 6.23423e-06 0.00200062 
1858 1 11.667 11.9343 5.21454 0.000653065 -0.00615526 -0.00265195 
1860 1 11.6794 10.6774 7.88659 0.00731679 0.00117626 -0.000353238 
1864 1 10.4526 11.913 6.0972 -0.00710421 -0.00234272 -0.00499833 
1881 1 10.4212 11.9289 9.67684 -0.00860354 0.00620885 0.00516524 
1883 1 10.4071 10.6773 10.5405 -0.000203338 -0.00468758 0.000406571 
1884 1 11.696 11.8959 8.74164 0.00358587 -0.00312282 0.00227765 
1887 1 11.6244 10.6691 11.4386 -0.000907879 -0.00155003 0.00207176 
1888 1 11.6366 11.894 12.333 0.0056484 -0.0025269 -0.00413932 
1892 1 10.3667 11.8641 13.1531 -0.00919248 -0.0110963 -0.0056061 
1962 1 10.3544 10.6334 14.0703 -0.00696899 -0.0105618 -0.00193201 
1965 1 11.6231 10.6425 14.9329 0.00306742 -0.00862551 0.00113352 
1968 1 11.6307 11.9294 15.7781 0.000213882 0.0095579 -0.00788564 
1975 1 10.3998 11.8758 16.7563 -0.0078943 0.00171049 -0.00315483 
1843 2 7.87832 12.3121 16.6987 0.000844057 -0.00083814 0.00467239 
3512 1 6.57482 23.2142 14.9916 0.000713044 -0.000813066 -0.00216585 
3513 1 5.32049 24.4311 16.8318 -0.00571446 -0.00245162 -0.00697887 
3514 1 5.29887 21.9227 16.8219 -0.00189224 -0.00022389 0.00112083 
3516 1 7.87146 23.183 14.1341 -0.0074946 -0.00256171 -0.000595239 
3519 1 9.14135 24.3862 15.9266 0.0057503 -0.0038861 0.00358877 
3518 1 9.18629 21.9865 15.9428 0.00749257 -0.00335296 0.00124036 
3517 1 9.24063 23.1938 15.0378 -0.00057763 0.00121462 -0.00863235 
3520 1 6.58268 24.4107 15.9508 -0.00423284 0.00576713 0.00150544 
3523 2 7.84697 22.3841 16.727 0.000345318 -0.00434221 0.00300293 
3524 2 7.79501 23.9562 16.718 -0.00551315 0.0034531 -0.000479162 
3529 1 10.3946 21.9434 2.59524 -0.0034565 -0.00461091 0.0015796 
3531 1 10.3931 20.669 3.47476 0.00113361 -3.42448e-05 0.00246512 
3532 1 11.6376 22.0012 1.7 -0.000267572 0 0 