ITEM: TIMESTEP
20000
ITEM: NUMBER OF ATOMS
20688
ITEM: BOX BOUNDS pp pp pp
0 50.289
0 50.289
0 243.135
ITEM: ATOMS id type xu yu zu vx vy vz 
2 1 2.12266 0.561308 3.4268 -8.78846e-05 0.00139314 0.00272888 
4 1 0.829828 1.88561 1.7 -0.00021983 0 0 
5 1 3.32391 0.593019 4.32582 -0.00227354 -0.000664775 0.00513409 
6 1 2.10167 1.83936 6.10145 -7.10128e-05 -0.00285927 0.00529127 
7 1 0.890054 0.551609 4.31505 0.0045637 -0.002348 0.00627112 
8 1 2.11799 0.541657 6.97276 -0.00591329 0.0021533 0.000610108 
10 1 0.83779 1.86003 5.2234 0.00237318 -0.00285249 -0.004817 
11 1 3.33792 0.555704 7.89435 -0.00107145 0.00682904 -0.00115176 
12 1 0.844306 0.610521 7.83483 -0.012796 -0.000727518 -0.00652763 
14 1 0.805854 3.16262 4.35744 0.0018462 -0.00201329 -0.00117582 
18 1 0.806967 3.07506 7.88091 -0.000964199 0.00200909 -0.00487011 
19 1 2.08716 1.81685 2.56504 -0.000380949 -0.00591196 0.00983221 
20 1 2.12355 4.36351 2.53253 0.00141536 -0.00441502 -0.00532309 
21 1 3.33933 1.88561 1.7 0.000218245 0 0 
22 1 2.09424 3.11297 3.44314 0.00323595 -0.0024858 0.000273134 
23 1 3.33932 4.31401 1.70001 0.000529106 0 0 
24 1 3.35257 3.09285 4.35967 -0.00630413 0.000434593 0.00211877 
25 1 3.3422 1.82129 5.20992 -0.00200775 -0.00247707 -0.000510858 
26 1 2.09002 3.08156 7.0207 0.00230112 -0.0011824 -0.00580004 
27 1 3.36811 4.35164 5.25369 0.00151136 -0.00263154 -0.00246356 
28 1 3.35103 3.08044 7.90131 0.00297097 0.00370648 0.00741745 
30 1 0.829811 4.31402 1.70001 -0.000153422 0 0 
31 1 2.10428 4.34823 6.18296 -0.00356858 -0.00101346 -0.000407457 
32 1 0.865151 4.36024 5.26682 0.00628186 0.00576053 0.0044897 
34 1 2.09356 0.592399 10.5317 0.000791803 -0.00778167 -0.00181367 
36 1 0.843782 1.82633 8.75956 -0.00420639 0.00398925 0.00232078 
37 1 3.39786 0.635708 11.4136 -0.00390813 -0.00296136 0.00162502 
38 1 2.14367 1.81642 13.1937 0.00744817 -0.000506863 0.000658937 
39 1 0.829965 0.582109 11.426 0.0136281 0.00524749 -0.00831106 
40 1 0.875254 1.84355 12.2292 0.00182581 0.00104722 -0.00105867 
42 1 0.876274 3.08357 11.3683 -0.00713753 0.00504335 -0.00431958 
45 1 2.08902 1.80024 9.65557 -0.00515575 0.00318463 0.00405739 
46 1 2.16618 4.34952 9.61703 0.0111542 0.00646369 0.00084803 
47 1 3.37823 1.80162 8.79998 -0.000279087 -0.00182919 0.00139429 
48 1 2.15812 3.14439 10.5016 -0.0042157 0.00169932 0.00254772 
49 1 3.36927 4.38372 8.79045 -0.00152519 -0.00892164 -0.0103677 
50 1 3.41518 3.1788 11.4052 0.0047561 -0.000620533 0.00401115 
51 1 3.38781 1.88932 12.3118 0.00798276 -0.00548115 0.00126796 
52 1 3.40189 4.35844 12.3593 0.00720352 0.00282514 -6.15932e-05 
54 1 0.900883 4.32683 8.7668 0.00161439 -0.00549079 0.00332638 
55 1 2.13175 4.3353 13.2269 -0.000862034 -0.00509578 0.00113028 
56 1 0.894517 4.3522 12.2595 0.00800562 -0.00290232 0.00515306 
57 1 4.63059 1.84448 2.56951 -0.00842616 0.000425453 -0.00786258 
58 1 7.16398 0.544206 3.44672 0.00619243 0.00516608 0.00247417 
59 1 4.63442 0.564498 3.44623 0.00059787 -0.00443687 -0.00589543 
60 1 5.85873 1.88561 1.7 0.000110998 0 0 
61 1 8.36798 0.604198 4.36075 0.00425948 -0.00517915 -0.00338985 
62 1 7.09296 1.82744 6.08893 -0.0103873 0.00693352 0.00846178 
63 1 5.90258 0.597277 4.35053 0.0100153 0.00181577 0.00546958 
64 1 7.1177 0.606798 6.97635 0.00410523 0.0113846 0.000864437 
65 1 4.59608 0.636221 7.00997 0.00253206 -0.00366299 2.94185e-06 
66 1 5.82105 1.84635 5.22493 0.00426981 0.000981901 0.00413195 
67 1 8.38475 0.579279 7.91311 0.00463596 -0.0020294 0.00663153 
68 1 5.89542 0.631744 7.86883 -0.00383876 -0.00204255 -0.00271054 
69 1 4.57226 3.09754 3.45314 0.000658692 0.00400629 -0.00524946 
70 1 5.86969 3.11088 4.33016 0.000448183 -0.00771301 -0.000990406 
71 1 4.62185 4.34569 6.15701 0.000259041 -8.52016e-05 -0.00175032 
72 1 4.54707 1.81647 6.11575 0.00477707 -0.000705675 0.00980525 
73 1 4.55639 3.09168 6.98116 -0.00495515 0.0012376 -0.00015203 
74 1 5.8911 3.12079 7.80448 0.000118838 0.00911299 -0.000532983 
75 1 7.11702 1.81812 2.5568 0.00273664 -0.000122486 -0.000344701 
76 1 7.1185 4.34257 2.59391 0.00400197 -0.00134841 -0.00741879 
77 1 8.36823 1.88561 1.7 0.000129082 0 0 
78 1 7.07789 3.08089 3.47152 0.00327524 0.000121391 -0.00332189 
79 1 8.36822 4.31401 1.70001 -1.54829e-05 0 0 
80 1 8.34834 3.10067 4.35674 -0.00308975 0.00264684 0.0053084 
81 1 8.36768 1.86221 5.20505 0.00305667 -0.0007445 0.00444853 
82 1 7.09911 3.10736 6.93297 -0.00551189 -0.00451609 -0.000655074 
83 1 8.40173 4.3778 5.2192 -0.00591711 0.00507934 -0.00923595 
84 1 8.39462 3.07971 7.85099 -0.00349951 -0.00213128 -0.00753425 
85 1 4.58393 4.35838 2.60087 0.000354388 0.000280121 -0.00187318 
86 1 5.85871 4.31402 1.70001 -0.000156636 0 0 
87 1 7.1318 4.37132 6.12131 0.00364771 0.00374159 0.00789368 
88 1 5.89769 4.36477 5.24547 0.0013934 0.00288499 -0.00589628 
89 1 4.63871 1.89621 9.62369 -6.33467e-05 -0.0042564 -0.00201345 
90 1 7.14025 0.598245 10.5369 -0.00446505 0.00292519 -0.00216758 
91 1 4.63662 0.612295 10.5341 -0.000146438 -0.00110921 0.000552431 
92 1 5.89211 1.87554 8.71451 0.00625613 0.00211275 -0.00456751 
93 1 8.33807 0.539048 11.4242 0.0016775 -0.00299204 -0.00322067 
94 1 7.15846 1.86966 13.2361 -0.00196719 0.00400488 -0.00994921 
95 1 5.89455 0.619302 11.4195 -0.00580012 0.00205779 0.00247673 
96 1 5.89741 1.87801 12.3313 -0.00152075 0.00120132 0.00465924 
97 1 4.67747 3.13523 10.5298 0.00905157 0.0116827 0.000814574 
98 1 5.91835 3.12438 11.4625 0.00457133 0.00699267 -0.00215937 
99 1 4.65693 4.36349 13.2255 -0.00212157 0.000234047 0.00470803 
100 1 4.63869 1.89331 13.225 0.00375245 0.00148781 0.000697285 
101 1 7.09442 1.83109 9.65136 -0.00264832 -0.00484969 -0.00629192 
102 1 7.14963 4.34012 9.61225 -0.00117702 0.0083151 -0.00108169 
103 1 8.41364 1.84708 8.779 -0.0049654 0.006764 0.00705196 
104 1 7.16258 3.11259 10.4811 -0.00693862 0.00188125 0.00360222 
105 1 8.39467 4.35982 8.78518 -0.00172121 -0.00075989 0.00937125 
106 1 8.40417 3.04215 11.4267 0.00438336 0.00148818 0.00982703 
107 1 8.41503 1.78422 12.3537 -0.0042924 0.00308528 0.00241159 
108 1 8.40087 4.32415 12.3651 -0.00139405 0.00310977 0.00312223 
109 1 4.6541 4.40434 9.6287 -0.000444523 0.00293254 -0.00142017 
110 1 5.89637 4.36427 8.72887 -0.00693946 -0.00553218 0.0017155 
111 1 7.12336 4.37303 13.2581 -0.00821561 0.0057329 0.000225939 
112 1 5.903 4.3721 12.3541 -0.00334467 0.00426723 0.00242223 
113 1 2.14237 0.573018 14.1163 -0.000612403 -0.00488888 0.00544862 
115 1 3.41797 0.584142 14.9839 0.002767 0.00578772 -0.00167076 
116 1 2.13955 1.80456 16.696 0.00310367 0.000676292 -0.00544629 
117 1 0.83613 0.556685 14.9094 0.00111518 0.00536178 -0.00223337 
120 1 0.888164 1.8249 15.8287 0.000791486 0.00851007 0.00332474 
125 1 0.778531 3.08972 14.9045 -0.00330791 -0.00662789 -0.00531589 
1854 1 12.1436 11.9373 6.12012 -0.00563668 0.00592951 0.000886877 
130 1 2.1004 3.0366 14.0514 -0.00204757 0.00537757 0.00238547 
131 1 3.38779 3.11511 15.0015 0.000191988 0.000886854 0.00831912 
132 1 3.41128 1.84322 15.8492 -0.0103511 -4.26635e-05 4.36139e-05 
134 1 3.38672 4.3593 15.8266 -0.00225063 -0.00086507 -0.000178798 
138 1 2.10962 4.31441 16.6412 0.00356173 0.00460558 0.00381355 
139 1 0.865114 4.38131 15.7903 -0.0108448 0.00297384 0.00523406 
145 1 7.14066 0.590852 14.1599 -0.00232807 -0.00252665 -0.00475814 
146 1 4.67766 0.606576 14.0857 -0.00372142 0.00107649 -0.00274937 
147 1 8.36605 0.586021 15.0216 0.00446697 0.0101118 -0.00232218 
148 1 5.89925 0.584894 15.0339 -1.28636e-05 0.000418055 0.000925931 
150 1 5.88844 1.92322 15.8353 0.00200918 0.00184706 -0.0101955 
151 1 4.61979 3.12839 14.1123 -0.00112032 -0.00395777 -0.00478451 
152 1 5.84132 3.10872 14.9823 0.00617041 -0.00302842 0.00475607 
153 1 4.60943 4.35726 16.7691 -0.00284688 0.000406507 0.000605522 
154 1 4.64043 1.86638 16.7694 0.00326347 0.00108084 0.0132772 
156 1 7.11544 3.12941 14.1234 -0.00229015 -0.00536429 0.00355483 
157 1 8.4469 3.09441 14.9585 -0.00493534 0.00357528 0.00685516 
158 1 8.35898 1.92893 15.939 -0.00276504 0.00435045 -0.00346052 
159 1 8.44252 4.29919 15.9022 -0.00210695 -1.25291e-05 -0.00273285 
160 1 5.8945 4.29584 15.8798 0.00350923 0.00324594 -0.00314398 
163 2 7.10115 2.33271 16.7321 -0.00561807 0.00546319 0.00173224 
164 2 7.14445 3.92566 16.6531 -0.00470194 0.00220361 0.0104458 
169 1 9.65051 1.89354 2.55491 0.00568951 0.00183515 0.00186162 
171 1 9.63576 0.657191 3.47885 0.00933554 -0.00939417 -0.0115228 
172 1 10.8876 1.88561 1.7 0.000410624 0 0 
175 1 10.9013 0.611086 4.29171 -0.000979311 -0.00818031 0.00137695 
177 1 9.60391 0.580861 7.02779 0.00170657 -0.00595076 -0.00366386 
178 1 10.9301 1.86343 5.21594 0.00406244 -0.00243091 -0.00144634 
180 1 10.9086 0.614865 7.8879 -0.000475416 0.00140815 0.00184141 
181 1 9.63421 3.12285 3.47606 0.00716522 0.00396689 -0.00259829 
182 1 10.8981 3.12841 4.37915 -0.00394675 0.000280997 -3.29305e-05 
183 1 9.64621 4.41529 6.04836 -0.00124599 -0.000441083 -0.000170105 
184 1 9.60427 1.84418 6.06825 -0.000723159 0.00461125 -0.000686752 
185 1 9.64184 3.126 6.96439 -0.0012243 0.00188092 0.00135048 
186 1 10.9041 3.09301 7.90527 -0.000901974 -0.00156652 -0.000174355 
197 1 9.64335 4.34294 2.56649 -0.00530948 -0.00267519 -0.00203359 
198 1 10.8876 4.31402 1.70001 -1.13876e-05 0 0 
200 1 10.8843 4.38915 5.26577 0.0021078 0.000966025 -0.00245513 
201 1 9.67421 1.88143 9.67237 0.00761996 0.00894969 0.000187118 
203 1 9.63779 0.584532 10.5536 0.00147834 -0.00230499 -0.012108 
204 1 10.9378 1.86193 8.82136 0.0014282 -0.00129055 -0.00139548 
207 1 10.857 0.594174 11.3769 -0.00680158 0.000882154 -0.00784261 
208 1 10.8951 1.82651 12.2915 0.00984251 -0.00680128 0.00628712 
209 1 9.67176 3.08263 10.5322 -0.00283308 -0.000454095 -0.00147046 
210 1 10.9395 3.06983 11.446 0.00504907 -0.00457312 0.00115627 
211 1 9.63557 4.35071 13.1589 -0.000933274 0.00709045 -0.00805473 
212 1 9.68183 1.79642 13.1782 -0.0060205 -0.00255753 0.00303442 
221 1 9.64303 4.33477 9.64193 -0.00282001 0.0056712 0.00635452 
222 1 10.9133 4.3943 8.76135 0.000149244 0.00181222 0.00407282 
224 1 10.8884 4.32975 12.272 0.00117191 0.00424603 -0.00314789 
282 1 9.59322 0.545794 14.0512 -0.00162191 -0.00219691 -0.011129 
285 1 10.8379 0.5773 14.9993 0.00124331 -0.00233018 0.00191238 
288 1 10.8567 1.8386 15.9053 0.00932052 0.000417873 -0.00823384 
292 1 9.6575 3.06001 14.0261 0.00635075 -0.00831754 0.00196139 
293 1 10.8765 3.09767 14.9882 0.00626907 -0.000631219 -0.00529582 
294 1 9.67717 4.33103 16.8266 -0.00490316 0.00889317 -0.00555389 
295 1 9.60614 1.88307 16.8962 -0.0037577 -0.00691701 0.00136291 
307 1 10.8899 4.3339 15.8906 0.00498311 -0.00360008 -0.00132126 
842 1 2.09345 5.60898 3.46976 0.00195057 0.00443587 -0.000125309 
844 1 0.829828 6.91451 1.7 -0.000171835 0 0 
845 1 3.31008 5.61632 4.40186 -0.00925402 0.000587279 0.000317846 
846 1 2.05192 6.83676 6.15401 -0.00171833 -0.00182442 0.000323368 
847 1 0.819507 5.63484 4.37766 0.00503903 -0.00521505 0.00400389 
848 1 2.07192 5.6287 7.07673 -0.00205761 -0.00073475 0.00276171 
850 1 0.808215 6.89653 5.24751 -0.00700848 0.00431432 0.00110926 
851 1 3.32862 5.63718 7.88314 -0.00857413 -0.00491993 0.000254326 
852 1 0.809724 5.65474 7.94923 0.00320604 -0.00960679 -0.000756641 
854 1 0.825105 8.17214 4.38381 -0.00111559 0.00181169 0.00314903 
858 1 0.82876 8.1115 7.93795 0.00609728 -0.00306311 -0.00171548 
859 1 2.05742 6.88267 2.57895 -0.0014452 0.00708039 0.00176417 
860 1 2.07434 9.37588 2.58032 0.00426879 -0.001567 -0.00719516 
861 1 3.33933 6.91451 1.7 0.00015356 0 0 
862 1 2.08163 8.16172 3.43524 -0.00197621 0.0045817 0.000589101 
863 1 3.33932 9.34291 1.70001 -0.000164368 0 0 
864 1 3.34207 8.06903 4.38355 0.000410831 -0.00317721 -0.000242756 
865 1 3.28335 6.84719 5.28125 -0.00188044 -0.00686696 -0.00428389 
866 1 2.12292 8.09427 7.03767 -0.00324755 0.00232847 0.000435466 
867 1 3.3372 9.32588 5.28583 -0.00258207 0.0019516 0.00351995 
868 1 3.3829 8.13953 7.97647 -0.00756649 0.00396782 -0.00281265 
870 1 0.829811 9.34292 1.70001 -6.69162e-05 0 0 
871 1 2.06608 9.35965 6.13045 -0.0008669 0.00320028 0.000572355 
872 1 0.837597 9.45808 5.22601 0.00572906 0.00578738 0.0055039 
874 1 2.17127 5.57573 10.5238 -0.00203148 -0.0018421 0.00770745 
876 1 0.848666 6.86756 8.84634 0.00102769 -0.00477825 0.00431069 
877 1 3.42672 5.61434 11.422 0.0071427 -0.0019006 -0.00242683 
878 1 2.15355 6.84174 13.2299 0.00198804 -0.00348897 -0.00294389 
879 1 0.908358 5.57942 11.3724 0.00754126 0.000654566 -0.00252622 
880 1 0.867427 6.82452 12.3007 0.00528318 -0.00417857 -0.00360259 
882 1 0.820029 8.10529 11.427 -0.00213952 -0.00505273 -0.00468972 
885 1 2.12924 6.83303 9.67936 0.00227193 -0.00172954 0.00427859 
886 1 2.06648 9.34641 9.66769 -0.00104026 -0.00623082 -0.00243113 
887 1 3.33793 6.84392 8.83385 -0.000264015 0.00472741 0.00144611 
888 1 2.10755 8.08971 10.5515 -0.00219959 0.0010047 0.000595812 
889 1 3.33993 9.35502 8.80381 -0.00743411 -0.00284177 -0.0042456 
890 1 3.33979 8.12743 11.4264 0.000338477 0.00192588 -0.00551855 
891 1 3.35198 6.8756 12.3246 -0.00447956 0.000704622 -0.000374696 
892 1 3.38854 9.4076 12.2842 -0.00171923 -0.00229179 -0.00138281 
894 1 0.776675 9.34377 8.85291 -0.00141151 -0.00353874 -0.00709338 
895 1 2.17171 9.35735 13.1841 0.00185227 0.00123354 0.00229745 
896 1 0.84202 9.31757 12.3283 0.00304603 -0.0087145 -0.00252749 
897 1 4.64007 6.90996 2.61996 0.00222697 -0.00289348 -0.00574706 
898 1 7.12407 5.61769 3.46428 -0.00840736 0.00194421 -0.000217026 
899 1 4.58911 5.64506 3.54246 0.00409291 -0.00218473 0.00141973 
900 1 5.85873 6.91451 1.7 8.74219e-05 0 0 
901 1 8.414 5.63954 4.37606 0.00630033 -0.00101203 -0.00667769 
902 1 7.07346 6.87953 6.20681 0.00245115 -0.00632278 -0.000391355 
903 1 5.88702 5.58241 4.37924 -0.00427614 -0.00344324 -0.00604092 
904 1 7.11415 5.63017 7.09042 0.00329732 0.000601317 -0.000724074 
905 1 4.57922 5.66418 7.02195 0.00367139 -0.000332846 -0.0045813 
906 1 5.88064 6.84776 5.24576 0.0171734 0.00554629 0.00891251 
907 1 8.36684 5.61213 7.92103 0.00363857 -0.00530613 -0.00394346 
908 1 5.80622 5.63914 7.92456 -0.00206501 0.00338691 0.000664163 
909 1 4.57849 8.1336 3.53082 -0.000463525 0.000214787 -0.000365029 
910 1 5.86438 8.14028 4.37648 8.45702e-05 -0.00367543 -0.00175267 
911 1 4.58918 9.40547 6.14989 -0.00287772 0.00672222 0.00446164 
912 1 4.60695 6.85546 6.115 0.0016283 -0.003967 -0.00743501 
913 1 4.61271 8.13605 7.04646 -0.00264735 -0.00186541 -0.000128613 
914 1 5.85531 8.14452 7.92566 0.00180574 0.00042361 0.00281063 
915 1 7.13228 6.85515 2.56115 0.00870936 0.000299816 0.00295956 
916 1 7.15254 9.3553 2.5598 0.004956 -0.000262078 -0.00438542 
917 1 8.36823 6.91451 1.7 0.000227489 0 0 
918 1 7.16336 8.15356 3.48444 -0.00173609 0.000668296 -0.0015377 
919 1 8.36822 9.34291 1.70001 0.00059969 0 0 
920 1 8.44839 8.14212 4.36648 0.00697858 -0.00273283 0.00976472 
921 1 8.38677 6.86466 5.2586 -0.00220509 0.00604709 0.00145224 
922 1 7.10973 8.12256 7.02288 0.00426742 0.00988364 0.00339567 
923 1 8.36502 9.39862 5.25528 0.0046065 0.00206353 0.00766179 
924 1 8.33936 8.10816 7.89128 -0.00743438 0.00202199 0.00292562 
925 1 4.57272 9.39952 2.60359 -0.00219137 0.00472592 -0.00224354 
926 1 5.85871 9.34292 1.70001 -0.000161143 0 0 
927 1 7.11718 9.39262 6.14867 -0.00570163 -0.0131122 0.000721352 
928 1 5.82421 9.43585 5.26784 0.00158194 0.00216691 -0.000717237 
929 1 4.63997 6.86419 9.72155 -0.00403072 0.000904463 0.00168954 
930 1 7.17994 5.60389 10.5816 -0.00526386 0.00279562 0.00959781 
931 1 4.69232 5.64627 10.5415 0.0012036 -0.00188564 -0.000142303 
932 1 5.83931 6.89919 8.80164 -0.000865432 -0.00368702 -0.00237538 
933 1 8.35445 5.60326 11.434 0.00781183 0.00112156 -0.011341 
934 1 7.20401 6.88523 13.1885 -0.000498941 0.00337678 -0.0106003 
935 1 5.9481 5.63601 11.4261 -0.000498017 0.00152338 0.00340059 
936 1 5.93096 6.8772 12.3409 -0.00202037 -0.00717152 0.0029149 
937 1 4.62038 8.07857 10.61 -0.000478978 -0.00528727 -0.000736232 
938 1 5.90542 8.13744 11.469 0.0079701 -0.00322655 -0.00442508 
939 1 4.62254 9.41774 13.1276 0.00901535 0.00282963 0.000135456 
940 1 4.66976 6.86411 13.1786 -0.00291484 0.000688314 0.0031478 
941 1 7.16074 6.87775 9.71064 -0.00918928 0.00265757 0.00419036 
942 1 7.11191 9.38606 9.65129 -0.000278343 7.0945e-05 0.00538669 
943 1 8.41635 6.90419 8.82441 0.00336969 -0.00261926 0.00507944 
944 1 7.13416 8.14173 10.5576 -8.23694e-06 0.00861479 0.00719589 
945 1 8.36573 9.35534 8.77542 0.00754899 -0.00238506 -0.00033955 
946 1 8.37492 8.10724 11.4366 0.00378787 -0.00215661 0.00230792 
947 1 8.45629 6.85595 12.3134 -0.0004515 3.13628e-05 -0.00181085 
948 1 8.36947 9.40172 12.3344 0.00472236 0.000423525 -0.00418065 
949 1 4.62677 9.36673 9.7057 -0.000228298 -0.000368358 0.00415099 
950 1 5.84237 9.39309 8.82298 0.00457126 -0.000255661 -0.00515755 
951 1 7.08142 9.40156 13.2778 0.0019362 0.00474252 0.00475941 
952 1 5.85002 9.41592 12.3388 0.00131013 -0.00945843 0.00418684 
953 1 2.0807 5.60997 14.1243 -0.00330932 -0.00206394 0.00285533 
955 1 3.36579 5.63798 14.9941 0.000882762 -0.00470335 -0.00313298 
956 1 2.13509 6.84144 16.6835 -0.00628048 -0.00132841 0.00704312 
957 1 0.838662 5.6158 14.9803 -0.00836833 0.00975801 -0.00157732 
960 1 0.841012 6.85067 15.9002 -0.00606012 0.00499482 0.00493739 
965 1 0.876077 8.06874 14.9627 -0.00247196 0.00303736 0.001184 
970 1 2.16612 8.13202 14.121 -0.00464131 -0.00483702 -0.00724997 
971 1 3.41526 8.1095 14.9336 0.00297759 0.00151177 0.00172408 
972 1 3.43038 6.87312 15.821 -0.002424 -0.000149617 0.00152439 
974 1 3.38629 9.3719 15.801 -0.000403408 2.54981e-05 0.00241373 
978 1 2.09748 9.377 16.6208 -0.000722127 0.000531037 0.000618459 
979 1 0.853192 9.35617 15.7933 0.00548895 0.00397614 0.00331624 
985 1 7.19896 5.65811 14.1346 -0.00170602 -0.00114444 -0.00125972 
986 1 4.64606 5.65836 14.1319 -0.000679024 0.00798867 0.00550805 
987 1 8.41592 5.613 15.0165 -0.00371931 -0.000843032 0.00272562 
988 1 5.91697 5.6329 14.9968 -0.0026896 0.00246027 0.00054102 
990 1 5.96227 6.89497 15.88 0.000555317 -0.000837114 0.00233321 
991 1 4.67033 8.192 14.05 0.00513182 -0.00457382 -0.00873163 
992 1 5.87071 8.15792 14.9435 -0.00399361 0.000704093 0.00321588 
993 1 4.59254 9.37913 16.7807 -0.0106451 0.00118778 -0.0103764 
994 1 4.66672 6.90597 16.7373 0.00281134 0.00447846 0.00512017 
996 1 7.11737 8.14173 14.0947 4.04353e-06 -0.00387512 0.00271404 
997 1 8.44889 8.137 15.0082 0.00231982 0.00206359 0.00245213 
998 1 8.46965 6.93548 15.8963 -0.00146831 -0.000150874 -0.00621669 
999 1 8.43143 9.36613 15.9012 4.41257e-05 -0.00366832 0.0102927 
1000 1 5.87175 9.30854 15.9096 0.00279346 0.00223455 0.000755176 
1003 2 7.16792 7.2958 16.7086 0.00458807 0.00434374 -0.00095372 
1004 2 7.15615 8.9064 16.6621 -0.0042573 0.00122774 0.00165381 
1009 1 9.5978 6.83908 2.62265 -0.00273352 -0.00389614 -0.00542424 
1011 1 9.6454 5.57653 3.46759 0.000590238 -0.00126302 0.00471513 
1012 1 10.8876 6.91451 1.7 -0.000723007 0 0 
1015 1 10.8912 5.62527 4.32393 -0.00016412 0.00245799 -0.000452862 
1017 1 9.62451 5.6254 6.99751 -0.00121342 0.00389127 0.00180731 
1018 1 10.8424 6.88645 5.2734 -0.00528738 -0.000295724 0.000570032 
1020 1 10.8847 5.67836 7.90955 0.00391674 0.00860707 -0.00235462 
1021 1 9.66431 8.11775 3.46216 -0.00738737 0.00222925 0.000615397 
1022 1 10.8712 8.15061 4.38914 -0.00492855 0.00585765 -0.00303043 
1023 1 9.61699 9.3736 6.12695 -0.00150406 -0.00319 -0.00288265 
1024 1 9.59062 6.92618 6.16204 -0.00848366 -0.00689905 -0.00601141 
1025 1 9.61866 8.18617 7.02083 0.000226029 0.00387939 -0.00319989 
1026 1 10.8673 8.11303 7.86037 -0.00347699 -0.00296185 0.00282702 
1037 1 9.63132 9.35596 2.62667 -0.00245369 -0.00752128 0.00199274 
1038 1 10.8876 9.34292 1.70001 -0.000532413 0 0 
1040 1 10.8847 9.40292 5.28965 0.00403898 -0.00435948 -0.00173187 
1041 1 9.59058 6.87166 9.66433 0.00244648 0.00389592 0.000372882 
1043 1 9.61251 5.64353 10.5526 -0.00866996 -0.00969019 -0.00060504 
1044 1 10.9146 6.90675 8.79074 0.00238651 -0.00266346 0.000108334 
1047 1 10.8469 5.624 11.4086 -0.00476372 -0.000123257 0.00230637 
1048 1 10.8585 6.82886 12.2857 -0.00372854 0.0020088 0.000922003 
1049 1 9.60147 8.13282 10.5533 0.00563974 0.00172732 -0.000898566 
1050 1 10.8354 8.11206 11.4293 -0.00153356 -0.00777456 -0.00328895 
1051 1 9.62493 9.38979 13.1913 -0.00273691 -0.00067659 0.00557966 
1052 1 9.66039 6.84874 13.2092 -0.00245813 0.00366803 0.00708821 
1061 1 9.63381 9.37724 9.67069 0.00247011 0.00685765 3.49974e-06 
1062 1 10.8842 9.41077 8.74142 0.00108933 0.00222795 0.00622524 
1064 1 10.8712 9.4213 12.3153 0.00382429 -0.000395822 -0.00384127 
1122 1 9.65974 5.59325 14.07 -0.00174186 0.00650298 0.00186046 
1125 1 10.918 5.59308 14.9819 -0.00654566 0.00283267 -0.00879076 
1128 1 10.8953 6.88862 15.8238 -0.00181854 0.00218929 -0.000738931 
1132 1 9.65666 8.12612 14.0611 -0.0054738 0.00515162 -0.00223847 
1133 1 10.9201 8.15823 14.9406 -0.00363463 0.00381835 0.00136773 
1134 1 9.68567 9.37533 16.7715 0.0106362 0.00850449 -0.00726295 
1135 1 9.67575 6.9061 16.7848 -0.00961374 -0.00315784 0.00498182 
1147 1 10.9342 9.43135 15.8419 -0.00149701 0.00561317 0.00347996 
1682 1 2.08124 10.652 3.47256 0.00247575 -0.00397731 0.00413878 
1684 1 0.829828 11.9434 1.7 -6.60826e-05 0 0 
1685 1 3.27445 10.6328 4.38454 -0.00619021 0.00433157 4.27738e-05 
1686 1 2.07342 11.8873 6.19616 -0.00368609 -0.00124422 0.00449284 
1687 1 0.802732 10.6689 4.37279 -0.00553576 0.00141015 -0.000866575 
1688 1 2.11814 10.5868 7.0549 0.00258455 -0.00128297 -0.00549014 
1690 1 0.859707 11.8748 5.27292 -0.00497942 0.000981182 -0.00306581 
1691 1 3.38625 10.5986 7.93489 4.19817e-05 0.00164216 0.00804786 
1692 1 0.88461 10.5863 7.94596 0.00164546 0.00260792 -0.00110526 
1699 1 2.04616 11.9289 2.58403 -0.00458136 -0.00447589 0.00346995 
1701 1 3.33933 11.9434 1.7 -0.000193288 0 0 
1705 1 3.29972 11.8873 5.22013 -0.00268583 0.00199985 0.00372388 
1714 1 2.07287 10.6035 10.5713 0.0020254 -0.00663862 0.0026913 
1716 1 0.809968 11.8964 8.73258 -0.00360238 0.00178777 -0.00284406 
1717 1 3.33899 10.6357 11.44 0.00796505 -0.00257803 0.00367158 
1718 1 2.10982 11.9251 13.2027 0.00350305 0.00135323 0.0039099 
1719 1 0.815235 10.6036 11.4092 -0.00197566 -0.00186516 0.00313633 
1720 1 0.856685 11.8649 12.3257 -0.00461788 -0.0055864 0.0023131 
1725 1 2.10322 11.8284 9.70138 0.00133185 -0.00475464 0.00171114 
1727 1 3.30964 11.8819 8.78041 -0.00311518 -0.00380706 -0.00197689 
1731 1 3.34158 11.8617 12.3024 0.00384441 -0.000581807 -6.11842e-05 
1737 1 4.60014 11.9449 2.59755 -0.00132327 -0.00122491 0.0035844 
1738 1 7.09588 10.6505 3.44778 0.00269288 -0.00503998 0.00501036 
1739 1 4.56026 10.6818 3.49156 0.00194829 0.00497926 0.00035588 
1740 1 5.85873 11.9434 1.7 -0.000308154 0 0 
1741 1 8.37394 10.6496 4.31998 -0.0047573 0.00718379 0.000585605 
1742 1 7.09223 11.9157 6.17935 0.00994125 -0.00114812 -0.000816994 
1743 1 5.82731 10.6962 4.35688 -0.00420961 0.00201288 -0.00407677 
1744 1 7.11857 10.6464 7.0329 0.00826965 -0.0026636 -0.000614781 
1745 1 4.56655 10.6778 6.97846 0.00255924 0.00276524 0.00264448 
1746 1 5.84705 11.9519 5.24678 0.00221507 0.00169748 -0.00290303 
1747 1 8.40937 10.6112 7.92518 0.00881001 0.00293586 -0.00352065 
1748 1 5.83067 10.6837 7.8793 -0.00582206 0.00236036 0.00291301 
1752 1 4.55387 11.9471 6.09878 0.00163782 0.00757514 0.00397826 
1755 1 7.10528 11.8817 2.55751 -0.0139365 0.00120753 -0.00492429 
1757 1 8.36823 11.9434 1.7 -1.32333e-06 0 0 
1761 1 8.31693 11.9186 5.26232 -0.00520142 -0.00506159 0.000824459 
1769 1 4.61506 11.9051 9.68493 0.000657785 -0.00119592 -0.000158993 
1770 1 7.13943 10.6691 10.5772 0.00940489 -0.00528654 0.0011843 
1771 1 4.59525 10.6026 10.5728 -0.00275944 0.00782631 -0.00755426 
1772 1 5.86946 11.9169 8.79809 -0.00671846 0.00393938 -0.00369957 
1773 1 8.36411 10.649 11.4262 0.00196448 -0.0013413 -0.00941636 
1774 1 7.07381 11.8926 13.2278 0.000455614 -0.00421819 0.006566 
1775 1 5.87524 10.6771 11.4011 -0.00734517 4.50914e-05 0.000479383 
1776 1 5.81504 11.9447 12.2853 0.00227304 -9.24406e-06 -0.00299144 
1780 1 4.57143 11.8774 13.1656 0.00329391 -0.00379288 0.00913955 
1781 1 7.11345 11.9371 9.68736 -0.00127834 -0.00108632 -0.00360108 
1783 1 8.35581 11.9105 8.81218 -0.00165178 -0.000824269 -0.00258061 
1787 1 8.30223 11.842 12.3093 -0.0063159 0.000205718 0.000411833 
1793 1 2.1299 10.6544 14.0742 0.00615598 -0.00839816 -0.00304105 
1795 1 3.34659 10.6453 14.962 -0.010584 0.00797948 0.00204121 
1796 1 2.13304 11.9318 16.6568 -0.00492671 -0.000703998 0.000272762 
1797 1 0.851227 10.642 14.9595 0.0106262 -0.00170664 0.00432418 
1800 1 0.859974 11.8834 15.8639 0.00496019 0.000988435 -0.00184271 
1812 1 3.35267 11.8842 15.8226 0.000533563 -0.00373346 -0.000365178 
1825 1 7.04959 10.612 14.1653 -0.00677111 0.000939372 0.00852228 
1826 1 4.60393 10.652 14.1081 -0.00627367 0.000804661 0.00098221 
1827 1 8.31131 10.6546 15.0567 0.00312745 -0.000553041 -0.00503543 
1828 1 5.8691 10.5907 15.0813 -0.000335457 -0.00290422 -0.00113321 
1830 1 5.83455 11.8841 15.9288 0.00565059 0.000946062 0.00106151 
1834 1 4.55418 11.9246 16.822 -0.00159005 0.00227231 0.00223613 
1838 1 8.33253 11.932 15.8908 -0.00923217 0.000234167 -0.00418988 
1849 1 9.61979 11.8967 2.58399 -0.00419474 -0.00167086 0.00335332 
1851 1 9.67297 10.6244 3.46648 0.0081749 0.000814469 0.00483721 
1852 1 10.8876 11.9434 1.7 -7.8081e-05 0 0 
1855 1 10.9119 10.6692 4.38431 0.0039183 -0.000631295 0.00206604 
1857 1 9.67443 10.6553 6.99207 0.00291868 -0.003157 -0.0102209 
1858 1 10.9162 11.9061 5.21222 -0.00442309 0.00610377 0.00027861 
1860 1 10.909 10.6544 7.87173 -0.00198104 -0.00760221 0.000367445 
1864 1 9.63993 11.9222 6.10973 0.00501805 0.00314358 0.0020742 
1881 1 9.64584 11.9373 9.6779 0.00403585 0.00248237 -0.000639358 
1883 1 9.61334 10.6464 10.5365 -0.000367279 0.00339817 -0.00738019 
1884 1 10.8894 11.8983 8.76721 -8.4453e-05 0.00285267 -0.00165242 
1887 1 10.886 10.6564 11.3733 0.00311927 0.00269957 -0.00229191 
1888 1 10.8491 11.8756 12.2859 0.00765493 -0.009478 0.00139589 
1892 1 9.61204 11.8818 13.151 -0.00333551 0.00185061 -0.00419952 
1962 1 9.61112 10.6299 14.1418 0.00110352 0.00588242 -0.00124715 
1965 1 10.9488 10.6644 14.9586 0.001195 0.00467865 0.0013 
1968 1 10.9113 11.8868 15.8785 0.00272674 -0.00351706 -0.00526236 
1975 1 9.64451 11.8911 16.7776 0.00374249 -0.000298966 0.00295681 
1843 2 7.0779 12.3454 16.6557 0.0103345 -0.00181828 -0.0120657 
223 1 12.1595 4.36029 13.1497 0.00583603 -0.0057817 -0.000244255 
1042 1 12.1229 5.63508 10.4927 0.000847598 -0.00364227 0.00286128 
281 1 12.1407 0.612639 14.0819 0.00508606 0.00231583 -0.00158065 
1010 1 12.1475 5.65011 3.39937 -0.00206022 -0.00109955 -0.00269 
213 1 12.1655 1.87476 9.65624 -0.00191622 0.00191572 -0.0036792 
170 1 12.172 0.555994 3.4507 0.00613534 0.00465609 0.00380785 
1124 1 12.1528 6.8655 16.6605 0.00418046 -0.00519735 -0.00849437 
1039 1 12.157 9.39647 6.15028 -0.00190942 0.003053 -0.00232995 
1850 1 12.1481 10.6185 3.46586 0.000260937 0.00679702 0.00372277 
1027 1 12.1284 6.88172 2.54316 0.00295468 -0.0030477 0.00542297 
1867 1 12.1499 11.9023 2.58445 0.00472716 -0.00262946 -0.000598545 
190 1 12.1098 3.06035 3.49297 0.00047123 0.00252563 0.00290416 
1063 1 12.1819 9.42633 13.2022 0.00126108 -0.00806925 -0.00289125 
1856 1 12.1592 10.6317 6.99617 0.00156438 0.00477692 0.00334482 
202 1 12.1733 0.580686 10.5582 -0.00374373 0.00489547 0.00197614 
1138 1 12.1989 8.20328 14.0549 0.000563993 0.00558055 -0.0071248 
1014 1 12.1125 6.91635 6.14157 -0.0045214 -0.00666653 0.00181135 
206 1 12.1388 1.86887 13.1543 0.00356921 0.00864419 0.00701979 
1054 1 12.1363 9.38074 9.65669 -0.00849553 0.00542029 0.00115567 
188 1 12.1223 4.32873 2.5807 0.00100412 0.00192905 0.00208513 
187 1 12.1587 1.83087 2.60251 0.00423777 0.00241052 -0.00443415 
214 1 12.1371 4.36307 9.61262 0.00202819 -0.00332414 0.00829501 
199 1 12.1114 4.39386 6.17016 -0.00089951 0.00638301 -0.00169034 
1046 1 12.1523 6.84656 13.1543 6.90761e-05 0.002545 -0.00766643 
194 1 12.1449 3.11177 7.01223 0.00486959 -0.000893858 0.00440618 
298 1 12.135 3.10212 14.0806 0.00173121 0.00120043 -0.00708054 
1053 1 12.1598 6.90512 9.67903 -0.0079669 -0.00361958 -0.00421762 
1030 1 12.1441 8.12769 3.49787 -0.000156867 0.000140414 0.00460963 
216 1 12.1973 3.10084 10.5717 0.00036495 -0.000282533 0.00218721 
1121 1 12.2084 5.59469 14.0798 -0.00250678 0.0123263 0.00946446 
1016 1 12.1507 5.6609 7.02409 -0.00367868 0.00287294 -0.00082731 
1028 1 12.1023 9.38529 2.58506 0.00136278 -0.00410494 -0.00585716 
1882 1 12.0972 10.62 10.5436 -0.00847475 0.0111322 0.00354288 
1961 1 12.2051 10.642 14.0828 0.000725875 0.00990953 -0.00533956 
174 1 12.1311 1.89211 6.07968 -0.010091 0.00169333 -0.00349926 
1034 1 12.1469 8.13493 7.02763 0.00502704 -0.00347742 0.000499532 
1056 1 12.1208 8.1132 10.5663 0.00146718 0.000218317 0.00216007 
1146 1 12.2267 9.40313 16.7011 0.00389152 -0.00362062 -0.00464605 
1964 1 12.2341 11.9609 16.6716 0.000572372 -0.00225525 -0.000148963 
284 1 12.1217 1.84576 16.6946 0.00192999 0.000299017 -0.0034565 
1893 1 12.1372 11.8457 9.61297 -0.00332054 0.00697365 -0.0106621 
306 1 12.1791 4.36165 16.6704 0.000485986 0.00121885 0.00506274 
176 1 12.1334 0.51498 6.96406 0.00150787 0.000758942 -0.00237329 
1886 1 12.1465 11.9316 13.1429 -0.00134007 -0.00367328 -0.00294002 
3583 1 12.1134 24.509 13.1915 -0.000402636 -0.00626381 -0.000749975 
1874 1 12.0775 13.1874 7.03137 -0.00425952 -0.00152526 -0.00296488 
2694 1 12.1005 16.9074 6.12329 0.00968082 -0.00129869 0.00229693 
2804 1 12.1597 17.0185 16.6517 0.00180101 0.00184785 -0.00368812 
2714 1 12.1199 18.1722 7.01197 -0.000522285 0.00331812 -0.00292726 
2719 1 12.089 19.4345 6.12139 0.00100218 0.002765 0.00171029 
2818 1 12.0807 18.2189 14.1152 -6.30882e-05 0.00500833 0.00483076 
3550 1 12.1436 23.1771 3.38991 0.00146417 0.00124196 -0.00361017 
2690 1 12.1202 15.7423 3.42192 0.00530764 -0.011677 -0.00112832 
2733 1 12.081 16.9438 9.67463 -0.000670166 0.00262651 -0.00360304 
1894 1 12.1638 14.3801 9.70891 -0.0062807 -0.00315835 0.00513397 
2826 1 12.1586 19.5137 16.61 0.00296275 0.000860308 -0.00151344 