ITEM: TIMESTEP
10000
ITEM: NUMBER OF ATOMS
20688
ITEM: BOX BOUNDS pp pp pp
0 50.289
0 50.289
0 243.135
ITEM: ATOMS id type xu yu zu vx vy vz 
1 1 0.0811975 1.87387 2.58294 0.00103607 -0.0013985 0.00107081 
2 1 2.58988 0.565298 3.4507 -0.00113021 0.00465771 0.0041494 
1689 1 0.0940308 10.6519 7.04662 0.00922267 -0.00129049 -0.00440525 
4 1 1.32983 1.88561 1.7 -0.000198648 0 0 
5 1 3.8562 0.590907 4.34505 -0.00427885 0.000343086 -0.00536155 
6 1 2.62499 1.84402 6.1455 0.00442876 -0.00448788 0.00742418 
7 1 1.34564 0.578856 4.31551 0.000999365 -0.00879559 0.000438877 
8 1 2.60659 0.556018 7.09436 -0.00249893 0.00461764 -0.00317883 
9 1 0.108889 0.531564 7.05625 0.00615072 0.000988922 -0.00713835 
10 1 1.37282 1.8461 5.21591 -0.0123639 -0.00349265 0.0163455 
11 1 3.85285 0.545588 7.89594 0.00519432 -0.00335276 0.00117593 
12 1 1.32409 0.557826 7.95425 0.00389583 0.00571106 -0.00631848 
13 1 0.101996 3.11794 3.55105 0.00167592 0.00313727 0.004059 
14 1 1.38207 3.08531 4.36688 -0.00117379 0.00423711 -9.64295e-05 
15 1 0.0645508 4.37995 6.13551 -0.00114092 0.00517788 0.00160041 
16 1 0.0615041 1.85956 6.13405 0.0024358 -0.000644062 -0.00348933 
17 1 0.0590291 3.12013 7.02506 0.00235363 0.0039481 0.00544863 
18 1 1.31199 3.11759 7.90631 -0.00390101 -0.0040008 0.00136978 
19 1 2.56376 1.87221 2.57139 -0.002746 -0.00307082 0.0108699 
20 1 2.55886 4.33915 2.55137 -0.00237979 -0.0042151 -0.00624375 
21 1 3.83933 1.88561 1.7 -0.000225592 0 0 
22 1 2.57901 3.11031 3.49189 -0.00130425 -0.000923819 0.00264243 
23 1 3.83932 4.31401 1.70001 -0.000134078 0 0 
24 1 3.81899 3.13811 4.3009 0.00599193 -0.00283089 -0.0085305 
25 1 3.85828 1.88457 5.1838 -0.0017532 0.00194462 -0.00238883 
26 1 2.54764 3.07283 7.04556 0.00342975 -0.00180429 0.00223722 
27 1 3.84368 4.37374 5.20251 0.00445444 0.00222392 -0.00179357 
28 1 3.84738 3.06809 7.90745 0.0027371 -0.00473397 -0.00177312 
29 1 0.0957829 4.33034 2.60011 0.000148669 -0.00279475 0.0024871 
30 1 1.32981 4.31402 1.70001 -0.000316573 0 0 
31 1 2.56562 4.32852 6.0952 0.00183508 0.000537601 0.00916138 
32 1 1.30574 4.35236 5.19336 0.00223037 -0.00986155 -0.00519816 
33 1 0.112777 1.88336 9.7163 -0.0015489 0.00263561 0.00450684 
34 1 2.57469 0.558257 10.5337 0.0117847 -0.00172784 0.00978205 
2535 1 0.095819 19.5342 6.07441 0.00802907 0.00476324 0.00189985 
36 1 1.309 1.88597 8.80647 0.00617429 0.00225997 0.000811505 
37 1 3.80864 0.578017 11.4127 -0.000898402 0.00678929 -0.00711634 
38 1 2.63502 1.8494 13.2159 0.00199116 -0.00348625 0.000419951 
39 1 1.32116 0.573626 11.4071 -0.00437873 0.00477764 -0.00285777 
40 1 1.36366 1.87171 12.327 -0.00319795 0.00518417 -0.00465705 
41 1 0.138206 3.16873 10.5886 0.00453533 0.00283937 -0.000600674 
42 1 1.44259 3.18808 11.4291 -0.000138298 0.000851051 -0.0043626 
1683 1 0.0573722 10.7118 3.43818 -0.00217053 0.00502741 -0.000481399 
2573 1 0.096342 19.5033 9.65377 -0.00277519 -0.00222802 0.000864507 
45 1 2.57716 1.86474 9.66583 0.00399496 0.000840188 0.00752047 
46 1 2.58066 4.33389 9.65569 0.000329628 0.00110898 -0.00393404 
47 1 3.85328 1.82454 8.79043 -0.0033703 -0.00335805 -0.00847702 
48 1 2.68072 3.14325 10.5521 0.00609978 0.0036959 0.00550203 
49 1 3.84009 4.36759 8.76184 -0.00305088 0.00776764 0.00403309 
50 1 3.92704 3.12649 11.4392 0.00121036 0.00678262 0.00937591 
51 1 3.85885 1.82723 12.2984 0.00471457 -0.000152305 -0.00325137 
52 1 3.82009 4.39019 12.2845 0.0014486 0.00256694 0.00517495 
53 1 0.16315 4.41347 9.67694 0.00407774 -0.000700322 -0.0109378 
54 1 1.37722 4.40647 8.78268 -0.000278288 -0.00626754 0.000640042 
55 1 2.58933 4.40213 13.2373 0.00314753 -0.0013486 -0.0043138 
56 1 1.38933 4.45455 12.304 0.0088094 0.00170768 0.00993213 
57 1 5.11018 1.85514 2.53635 0.00213097 -0.00255878 -0.0044728 
58 1 7.61209 0.611437 3.50503 0.00163851 0.000634347 -0.00174919 
59 1 5.11164 0.611216 3.42238 -0.000302488 -0.00160427 -0.00241474 
60 1 6.35873 1.88561 1.7 0.000298687 0 0 
61 1 8.86059 0.61978 4.34852 0.00633828 0.00138026 -0.000347574 
62 1 7.67251 1.82868 6.13408 0.00320565 0.00566789 0.00389574 
63 1 6.35993 0.60406 4.32505 0.00720464 0.000180388 0.00155091 
64 1 7.61321 0.583663 7.01442 -7.61683e-05 -0.00442553 -0.0074937 
65 1 5.06408 0.58625 7.00435 -0.000868585 -0.00819101 0.00258205 
66 1 6.41262 1.90225 5.21804 -0.0117634 -0.00161444 -0.000102255 
67 1 8.81516 0.593575 7.96561 -0.00660009 0.00841798 -0.000332476 
68 1 6.29941 0.595169 7.92318 0.0045239 0.00107032 -0.00221728 
69 1 5.12571 3.10446 3.43923 0.00194476 -0.00129352 0.00394649 
70 1 6.36827 3.15159 4.328 0.00129978 -0.00880493 0.00863996 
71 1 5.07449 4.4207 6.08146 -0.00448289 0.0104178 -0.00374552 
72 1 5.13167 1.84136 6.07708 0.000550618 -0.00567977 -0.00490216 
73 1 5.08452 3.13866 6.98519 0.00698702 0.00368704 0.000698319 
74 1 6.34367 3.10387 7.91302 0.00234277 -0.000297795 0.00382808 
75 1 7.61816 1.87175 2.60285 -0.0127174 0.00616107 -0.000484927 
76 1 7.60589 4.31171 2.57063 -0.000500088 -0.00491941 -0.00190367 
77 1 8.86823 1.88561 1.7 -1.73875e-06 0 0 
78 1 7.59167 3.08111 3.50822 -0.0035634 0.00864931 -0.000278876 
79 1 8.86822 4.31401 1.70001 0.000182909 0 0 
80 1 8.9062 3.06029 4.366 -0.00385012 0.00216923 -0.00111262 
81 1 8.92192 1.86375 5.24346 -0.00346066 -0.00631596 -0.00546956 
82 1 7.62606 3.10256 7.03213 -0.00571698 -0.000410224 0.00749126 
83 1 8.86542 4.35474 5.25548 0.00627138 -0.000210532 0.00275911 
84 1 8.88672 3.13993 7.9156 0.00762005 -0.00518053 0.00526443 
85 1 5.10759 4.36035 2.54592 0.0024165 -0.000483436 0.0114802 
86 1 6.35871 4.31402 1.70001 -7.61182e-06 0 0 
87 1 7.5777 4.34265 6.08909 -0.00173168 -0.0023567 -0.00268296 
88 1 6.33216 4.40261 5.21426 -0.000953845 0.000448595 -0.000557799 
89 1 5.10449 1.84973 9.72042 -0.00192826 -0.000860603 0.000711223 
90 1 7.56843 0.62545 10.5678 0.000410558 -0.00624042 0.00194159 
91 1 5.07513 0.563091 10.5892 -0.00426401 -0.00667333 -0.00949027 
92 1 6.30143 1.79834 8.82096 -0.00983187 -0.000109391 0.00181266 
93 1 8.80174 0.630701 11.4202 0.00263564 -0.00640707 0.00315181 
94 1 7.61588 1.88863 13.2325 -0.00286734 -0.00167032 -0.00273326 
95 1 6.32437 0.535906 11.4856 0.00684135 -0.00636373 0.00470221 
96 1 6.33502 1.78267 12.3371 -0.00270549 0.00349314 0.00786934 
97 1 5.1309 3.12756 10.5306 0.0014568 -0.00339227 -0.0046787 
98 1 6.36315 3.08848 11.4097 -0.0042498 0.000504156 -0.00462826 
99 1 5.04613 4.38307 13.1537 0.00411897 0.00552799 0.0101171 
100 1 5.1258 1.81095 13.2315 -0.00394281 -0.00504413 0.00205196 
101 1 7.58191 1.88984 9.65033 -0.00214598 -0.00201543 0.00284032 
102 1 7.58867 4.44288 9.6817 -0.00435424 -0.00259143 -0.00023149 
103 1 8.83574 1.8672 8.77224 -0.00569326 -0.00253467 -0.00243031 
104 1 7.65204 3.17278 10.5338 0.00287181 0.00312679 -0.00645615 
105 1 8.84248 4.43432 8.81997 -0.0146071 -0.0038644 1.71386e-05 
106 1 8.82351 3.12337 11.4338 -0.00208379 -0.00293806 -0.00622935 
107 1 8.81118 1.89089 12.2824 0.00487844 -0.00117531 0.00865378 
108 1 8.83426 4.44552 12.3427 -0.00158034 -0.00112061 0.000204611 
109 1 5.09319 4.36039 9.65197 0.00482714 0.00164486 -0.000326694 
110 1 6.36099 4.4235 8.77501 0.00388246 -0.00120997 0.00220694 
111 1 7.54729 4.44595 13.2682 -0.00282107 -0.00117469 0.00418468 
112 1 6.31034 4.3454 12.3343 0.00269976 -0.000303687 -0.00165482 
113 1 2.60349 0.540394 14.0575 -0.00268011 0.00107123 0.00692132 
3395 1 0.0645204 20.7594 10.5633 0.00154437 -0.00835066 0.000815657 
115 1 3.83712 0.556062 14.9409 -0.0119043 -0.00303478 0.00517065 
116 1 2.56598 1.84521 16.6169 -0.00193739 0.00033716 -0.00311118 
117 1 1.30717 0.620781 14.9554 0.00273823 0.0023751 -0.00235742 
120 1 1.30996 1.87229 15.8036 -0.0049505 -0.000171257 -0.00276918 
124 1 0.0806715 3.17273 14.0689 -0.00436077 0.00275291 0.00947654 
125 1 1.33294 3.13639 14.9753 -0.00451883 0.0021935 0.00308252 
881 1 0.102608 8.14552 10.5614 -0.0017452 0.0104644 -0.00514844 
2563 1 0.101051 19.4355 13.1003 -0.00470888 0.00615861 0.00922838 
130 1 2.56305 3.11337 14.0928 -0.00284272 0.00761211 0.00276415 
131 1 3.82664 3.07092 14.9633 0.00374359 -9.65641e-05 0.000587122 
132 1 3.83651 1.83175 15.8082 0.00831622 -0.00272958 0.00474084 
134 1 3.87621 4.37455 15.7719 -0.00657277 -0.00285555 -0.00552918 
138 1 2.61442 4.39547 16.5927 -0.0016517 -0.00319133 -0.00447571 
139 1 1.34048 4.35858 15.8054 0.00340787 -0.00145819 0.0013853 
145 1 7.58248 0.606653 14.1297 0.00236454 0.00747328 -0.0039561 
146 1 5.09572 0.553525 14.0972 -0.00361097 0.0028033 -0.0028778 
147 1 8.8166 0.602653 15.0294 -0.00443442 -0.00616539 0.00726925 
148 1 6.34587 0.558094 15.0861 -0.00333371 0.0086834 -0.00108742 
150 1 6.31925 1.92214 15.8835 -0.000977721 -0.00226965 -0.00569799 
151 1 5.08883 3.07225 14.0429 0.00274588 -0.00382865 -0.000993924 
152 1 6.28955 3.0819 14.991 0.00403154 -0.00371823 -0.00344452 
153 1 5.10663 4.33225 16.7842 -0.00363125 -0.00353343 0.0053484 
154 1 5.03326 1.8051 16.7396 0.00973926 0.00227053 0.0012874 
156 1 7.59296 3.15558 14.1157 0.00486821 -0.00496262 0.000603745 
157 1 8.88013 3.08002 14.98 0.00113567 -0.00457933 0.00709724 
158 1 8.84781 1.91661 15.9432 -0.00144534 0.00312912 0.00233437 
159 1 8.87891 4.34412 15.8758 -0.00447334 0.00633785 0.00235516 
160 1 6.35489 4.31136 15.8958 0.00592331 0.000301207 0.0017253 
163 2 7.59635 2.35282 16.7374 0.00617896 -0.00539841 0.00928584 
164 2 7.65718 3.9551 16.6941 -0.00865508 0.0037144 0.0009562 
169 1 10.1536 1.83694 2.55346 0.000531961 0.00285796 -0.000181235 
171 1 10.1437 0.553272 3.43303 -0.0034246 0.00224082 -0.00307641 
172 1 11.3876 1.88561 1.7 0.000232778 0 0 
175 1 11.3642 0.605323 4.33356 -0.0026853 -0.00199153 -0.00643021 
177 1 10.0693 0.542966 6.9996 0.000354266 0.00749424 0.00449882 
178 1 11.42 1.85303 5.24115 0.0076991 -0.00533743 0.00331395 
180 1 11.391 0.618514 7.87249 0.00390306 0.00055573 -0.000144293 
181 1 10.1205 3.01465 3.49858 0.00315216 0.0051786 -0.000616761 
182 1 11.3479 3.07866 4.39181 0.00574124 -0.00242473 -0.00404292 
183 1 10.0986 4.4044 6.18013 -0.00788006 -0.00179305 -0.00673097 
184 1 10.1387 1.86048 6.12502 -0.00538897 -0.00336885 0.00140867 
185 1 10.1218 3.12975 7.05172 -0.000749444 -0.00121345 -0.00213553 
186 1 11.3602 3.1263 7.94603 0.00834895 -0.0059599 -0.00182524 
197 1 10.1609 4.2709 2.57973 -0.00119549 -0.000488319 0.0040439 
198 1 11.3876 4.31402 1.70001 0.000140456 0 0 
200 1 11.3333 4.36218 5.27948 -0.00105101 0.00389374 0.00231374 
201 1 10.1024 1.82532 9.67047 -0.00343206 0.00352935 -0.00969494 
203 1 10.0645 0.576888 10.5822 0.00266873 -0.00548397 -0.00271645 
204 1 11.3424 1.86625 8.77388 -0.000393206 0.00449269 -0.00747963 
207 1 11.3188 0.543337 11.5085 -0.00965291 -0.00433252 0.00315957 
208 1 11.3982 1.84579 12.3015 -0.00500236 -0.00575751 0.000190993 
209 1 10.0841 3.11401 10.5228 -0.00123542 -0.00351975 -0.00445369 
210 1 11.3774 3.1043 11.4145 -0.00542283 -0.00211235 0.00221944 
211 1 10.1287 4.387 13.2138 0.00782745 -0.00521561 -0.0113268 
212 1 10.0923 1.8595 13.1845 0.0110118 0.00448297 0.011455 
221 1 10.05 4.38355 9.6897 0.00219581 0.0024547 0.00851612 
222 1 11.3458 4.37038 8.77841 0.00647745 -0.00660024 -0.00278233 
224 1 11.4112 4.34087 12.2803 0.00642967 -0.00579222 -0.00109926 
282 1 10.0769 0.59584 14.11 0.0114867 0.00528413 0.00280562 
285 1 11.3714 0.621766 14.924 -0.00531707 -0.000388897 0.00153061 
288 1 11.3552 1.85458 15.847 0.00329744 0.00422197 0.00170628 
292 1 10.1157 3.1291 14.0537 -0.000889743 -0.00498863 0.00600147 
293 1 11.4028 3.11526 14.9335 0.000395404 -0.00432684 -0.00381915 
294 1 10.1163 4.38546 16.7815 0.00371739 -0.00153716 -0.0003078 
295 1 10.1528 1.87194 16.8067 0.00501681 0.00161154 0.00182873 
307 1 11.4153 4.3943 15.8549 -0.00216425 -0.00489346 -0.00109579 
841 1 0.0609679 6.88529 2.56666 0.00178612 0.00704619 0.00329805 
842 1 2.56539 5.62298 3.41777 -0.00903931 -0.00103268 -0.00534583 
843 1 0.0854868 5.63953 3.42685 -0.00388162 -0.00125613 0.00483241 
844 1 1.32983 6.91451 1.7 8.115e-05 0 0 
845 1 3.85634 5.59792 4.28787 -0.00229385 -0.000311158 0.000271314 
846 1 2.56732 6.85581 6.1119 0.00297358 0.00561114 -0.000675654 
847 1 1.3311 5.63076 4.31306 -0.00175836 0.00806098 -0.00562731 
848 1 2.58647 5.60568 6.99161 0.000315179 -0.00303681 -0.00512249 
849 1 0.107585 5.59776 7.05956 0.00717349 -0.00516736 0.004402 
850 1 1.3532 6.85088 5.19248 -0.00687092 0.00125875 0.00353972 
851 1 3.81013 5.63725 7.88413 0.00392798 -0.00058675 0.0136455 
852 1 1.4273 5.57054 7.87697 -0.00448667 -0.002317 -0.00618466 
853 1 0.121353 8.1466 3.38672 -0.00307499 0.000254012 -0.00208239 
854 1 1.32991 8.1568 4.29449 -0.0080385 -0.00352529 0.00188414 
855 1 0.0747939 9.3798 6.12447 -0.00587403 0.000693761 0.00288861 
856 1 0.0607261 6.88723 6.13642 0.00391366 0.00539196 0.00398853 
35 1 0.0897459 0.650795 10.5876 -0.0110444 0.00752608 -0.000600246 
858 1 1.29224 8.10111 7.93136 -0.00524927 0.00181727 0.00594547 
859 1 2.61241 6.8694 2.58197 -0.00460756 -0.00270953 -0.000789154 
860 1 2.58758 9.41269 2.55814 0.000143444 -2.57042e-05 0.00484193 
861 1 3.83933 6.91451 1.7 1.64158e-05 0 0 
862 1 2.60206 8.12314 3.46867 0.000887149 0.0045493 -0.00499556 
863 1 3.83932 9.34291 1.70001 0.00018598 0 0 
864 1 3.90529 8.12795 4.3301 0.00171617 0.00766967 -0.00739328 
865 1 3.87838 6.83543 5.20926 0.00397318 -0.00103305 -0.000718547 
866 1 2.54425 8.12664 6.9981 -0.0048911 0.00424849 -0.00134027 
867 1 3.91059 9.42444 5.17735 0.00276118 -0.00145362 -0.000248136 
868 1 3.86383 8.09144 7.84536 0.00896146 0.00261856 0.00287629 
869 1 0.0997196 9.41847 2.51163 -0.00672885 0.00418596 0.00304588 
870 1 1.32981 9.34292 1.70001 0.000416006 0 0 
871 1 2.58813 9.38246 6.05863 0.00191598 0.00307571 0.00902071 
872 1 1.33314 9.39813 5.17236 -0.001449 -0.00511412 0.000866569 
1807 1 0.0621077 11.8632 16.7696 0.00141722 0.00523079 0.00206517 
874 1 2.63839 5.62154 10.51 -0.0054712 -0.00345443 0.000643434 
857 1 0.0662479 8.13054 7.04145 0.00462411 0.00374647 -5.99157e-05 
876 1 1.4006 6.84978 8.84262 0.00634226 -0.00106856 -0.00506657 
877 1 3.8587 5.65367 11.4194 6.93415e-05 0.00105371 -0.000152528 
878 1 2.63234 6.9415 13.2177 -0.00235303 -0.00248547 0.00480419 
879 1 1.40292 5.68295 11.4466 -0.000252243 -0.00410523 0.00873989 
880 1 1.37117 6.91701 12.3606 -0.00900875 0.000931522 -0.0122045 
883 1 0.0729102 9.37848 13.2459 -0.00711748 0.00067011 0.00162628 
882 1 1.34561 8.15836 11.4658 -0.00196771 0.00271472 -0.000934825 
114 1 0.0359939 0.565384 14.057 -0.00132981 -0.000735142 -0.00669513 
884 1 0.148738 6.89297 13.2576 -0.00409928 0.00429101 -0.00742073 
885 1 2.6341 6.90464 9.65596 -0.00308895 -0.00387016 0.00929287 
886 1 2.63805 9.33377 9.68144 -0.000243985 -0.00203805 -0.00212026 
887 1 3.85534 6.87357 8.76377 0.00288648 -0.00566451 -0.000518345 
888 1 2.6432 8.16066 10.6391 -0.000304178 0.00418818 -0.00573093 
889 1 3.83776 9.34064 8.74353 -0.00948932 0.0091385 0.0037199 
890 1 3.90158 8.14745 11.4791 -0.00873368 -0.00472211 0.00243873 
891 1 3.87932 6.93791 12.3609 -0.00687927 -0.00348385 -0.00218076 
892 1 3.87784 9.45224 12.3045 0.00223523 0.00637551 -0.00629945 
893 1 0.0870734 9.38415 9.68917 0.000985392 0.003769 -0.00489751 
894 1 1.34741 9.41756 8.81122 -0.00065954 0.00144562 -0.00605946 
895 1 2.61922 9.43056 13.1562 -0.0050501 0.000351443 9.60814e-05 
896 1 1.35933 9.42142 12.3274 0.00549982 -0.00525708 -0.00209748 
897 1 5.09068 6.89405 2.55405 -0.00827261 0.00548378 0.00989525 
898 1 7.63249 5.58769 3.45839 -0.00737317 0.0025732 -0.00252006 
899 1 5.11459 5.60769 3.39981 0.00119711 0.001988 -0.0137783 
900 1 6.35873 6.91451 1.7 -0.000282395 0 0 
901 1 8.83983 5.63871 4.3552 0.00949162 -0.00227297 -0.00147925 
902 1 7.59743 6.87899 6.1389 0.00460257 -0.00328054 0.00120781 
903 1 6.35671 5.69038 4.3231 0.00522647 -0.00334135 0.00451278 
904 1 7.64856 5.62508 7.01306 0.00535466 -0.000671653 0.00571757 
905 1 5.11655 5.6245 7.01688 -0.00201241 0.00388206 0.00753256 
906 1 6.35652 6.90741 5.22091 -0.0052322 0.00841486 -0.000137598 
907 1 8.89205 5.67811 7.88557 -0.00666859 0.00594578 -0.000261349 
908 1 6.37991 5.61824 7.91199 -0.00373602 0.00204614 0.00588661 
909 1 5.13281 8.17528 3.41799 0.00536658 -0.00125601 -0.00208427 
910 1 6.39064 8.16544 4.3539 0.000317529 0.00293534 -0.00553305 
911 1 5.10768 9.41769 6.05345 0.000436201 0.00881769 0.00151698 
912 1 5.12802 6.85695 6.06579 -0.00801656 -0.000676345 -0.00381975 
913 1 5.06853 8.11533 6.89254 -4.75468e-05 -0.0021888 0.00679581 
914 1 6.3226 8.09915 7.83083 -0.00024284 -0.00193857 0.00171125 
915 1 7.59349 6.83386 2.56079 -0.000388108 0.00037602 0.00200195 
916 1 7.63091 9.38795 2.55262 -0.00501166 -0.00517313 -0.000427166 
917 1 8.86823 6.91451 1.7 -0.000263202 0 0 
918 1 7.64227 8.12956 3.45388 0.00228088 -0.00504072 -0.00931688 
919 1 8.86822 9.34291 1.70001 0.000239648 0 0 
920 1 8.87428 8.17596 4.33803 0.00107202 0.00514655 0.00152253 
921 1 8.83594 6.91719 5.22427 -0.00598092 0.00142527 -0.000581892 
922 1 7.65091 8.10789 7.00457 -0.000820341 -0.00158729 -0.0075799 
923 1 8.88093 9.43586 5.24559 0.000635235 -0.00952439 -0.00563385 
924 1 8.90278 8.10752 7.90495 0.00698466 -0.00334423 4.33002e-05 
925 1 5.12907 9.4575 2.54937 -0.00637577 -0.00231099 -0.00291125 
926 1 6.35871 9.34292 1.70001 0.000268931 0 0 
927 1 7.64202 9.39026 6.16831 0.000532592 0.0020832 -0.000455663 
928 1 6.38068 9.46292 5.25025 -0.000335702 -0.00114871 -0.00077251 
929 1 5.11357 6.83795 9.62074 -0.005749 -0.00562421 -0.00272435 
930 1 7.56463 5.65412 10.5259 0.00182624 0.00116568 -0.000785603 
931 1 5.09056 5.57857 10.5341 0.00834329 0.0072704 -0.00357807 
932 1 6.31223 6.88617 8.78253 0.000438074 0.00854481 -0.00596383 
933 1 8.82619 5.6949 11.41 0.00568478 0.00367476 0.00683497 
934 1 7.58035 6.83919 13.211 -0.000291963 -0.00563809 0.00773087 
935 1 6.34364 5.60461 11.4275 -0.000478123 -0.00757772 0.000856033 
936 1 6.30611 6.86823 12.3269 0.000468402 0.000295042 2.90645e-06 
937 1 5.0798 8.09973 10.5391 0.00101665 0.00887227 -0.00570994 
938 1 6.31609 8.16514 11.4311 -0.00130809 -0.00114555 -0.00393382 
939 1 5.08336 9.43619 13.2443 0.00445744 0.00277308 0.00972622 
940 1 5.11991 6.85496 13.2456 0.00161803 0.00209201 -0.000730843 
941 1 7.55625 6.9288 9.67301 -0.00304745 0.00220338 0.00995696 
942 1 7.57455 9.37096 9.65913 0.00350326 -0.00231991 0.00139219 
943 1 8.82877 6.91151 8.79707 0.00619662 0.00540661 0.00733146 
944 1 7.58272 8.16487 10.5849 -0.0090031 0.00569662 -0.00122402 
945 1 8.8916 9.3971 8.79465 0.00145247 -0.000710513 -0.00240158 
946 1 8.86084 8.19149 11.4609 -0.00895581 0.00342883 0.00211732 
947 1 8.85261 6.882 12.3183 -0.00238677 0.00645585 0.000628247 
948 1 8.85961 9.41947 12.321 -0.000690496 -0.00562153 -0.00500826 
949 1 5.07468 9.35336 9.65368 -0.0043263 0.00453673 -0.00165713 
950 1 6.29703 9.36291 8.79652 -0.00494689 0.000812599 -0.00166676 
951 1 7.52835 9.43115 13.2303 0.00501543 0.00446762 -0.00668867 
952 1 6.29281 9.48284 12.324 0.00332012 -0.00150791 0.00363981 
953 1 2.62964 5.71268 14.1179 -0.00526113 0.00379768 0.00744224 
2555 1 0.0407711 15.6466 10.4984 -0.000186093 0.00357062 -0.00117464 
955 1 3.85752 5.67386 14.9951 0.00750547 -0.000923951 -0.000501048 
956 1 2.57707 6.95012 16.6622 -0.000635538 0.000714189 0.00706509 
957 1 1.33822 5.66449 14.9669 0.00256415 0.000723523 0.00362517 
960 1 1.32142 6.9355 15.8 -0.00335345 0.00509147 0.00484174 
964 1 0.115896 8.15991 14.1104 -0.00537732 0.00384766 -0.00109294 
965 1 1.31358 8.19166 14.9563 -0.0047901 -0.0023628 0.00248672 
966 1 0.0804288 9.4259 16.7162 0.00125403 0.00467778 -0.000835299 
967 1 0.0305361 6.9224 16.7307 0.00626144 0.00259781 0.00383536 
970 1 2.54636 8.19207 14.1138 0.00272682 -0.00774141 -0.0005086 
971 1 3.87997 8.18823 14.9679 0.0026545 0.00368227 0.00244932 
972 1 3.8751 6.91343 15.8449 0.00503125 -0.00203781 0.00216428 
974 1 3.85124 9.44011 15.8203 0.00221343 -0.00314786 0.00152458 
978 1 2.6181 9.41332 16.6583 -0.000659021 -7.35353e-05 -0.00579024 
979 1 1.29408 9.427 15.8076 0.0075532 -0.00308036 -0.00354791 
985 1 7.56146 5.6418 14.1732 -0.000504542 0.00425014 0.00150937 
986 1 5.1031 5.57414 14.0891 -0.00391005 0.00125241 0.00634861 
987 1 8.81039 5.62783 15.0396 -0.0024216 -0.00541874 0.00110636 
988 1 6.34988 5.59205 15.0367 0.0062426 -0.0118213 -0.00740011 
990 1 6.3026 6.95205 15.8602 -0.00404365 0.00334145 -0.00649982 
991 1 5.06933 8.16778 14.0739 -0.00187774 0.0107245 0.000971229 
992 1 6.27911 8.15971 14.9605 0.00769626 0.00607727 -0.0045746 
993 1 5.09174 9.38488 16.8301 0.0011334 0.000898077 0.00664357 
994 1 5.08238 6.90662 16.7606 0.00187668 0.0104378 -0.000290624 
996 1 7.55533 8.17468 14.0637 -0.00104889 0.00503439 0.000711846 
997 1 8.8294 8.12776 14.9292 -0.00873259 -0.00922132 0.00540952 
998 1 8.86282 6.92344 15.9243 0.000380154 -0.00378187 0.00339558 
999 1 8.81169 9.3825 15.8965 -0.00236238 -0.00369415 -0.0062586 
1000 1 6.34145 9.35042 15.9336 -0.00595625 0.00778908 -0.00082633 
1003 2 7.59102 7.36037 16.7343 -0.00173793 -0.00171897 -0.00495977 
1004 2 7.58156 8.94675 16.7016 0.00900537 -0.00325383 0.00817314 
1009 1 10.1186 6.82307 2.55238 0.00126383 -0.00121523 -0.00457594 
1011 1 10.0842 5.55984 3.48776 -0.00187248 -0.00146676 0.000805382 
1012 1 11.3876 6.91451 1.7 -0.000113681 0 0 
1015 1 11.3057 5.59354 4.31763 -0.00774636 -0.00282817 0.00109712 
1017 1 10.1417 5.68447 7.01078 -0.00411538 0.000800864 -0.00220323 
1018 1 11.3515 6.8786 5.20116 0.00537813 0.000314949 -0.00515975 
1020 1 11.3863 5.66952 7.86715 -0.00292212 -0.00481351 0.00418609 
1021 1 10.0998 8.0858 3.41669 -0.00152282 0.00235394 0.00388886 
1022 1 11.3295 8.12972 4.32012 0.00442831 -0.00342128 0.000678285 
1023 1 10.1665 9.43967 6.11644 -0.00236027 -0.000667201 0.00627669 
1024 1 10.1312 6.91786 6.08797 0.00142078 -0.000836369 8.68068e-05 
1025 1 10.162 8.15814 6.95503 0.00433464 -0.00130006 0.00643188 
1026 1 11.3939 8.11687 7.82094 -0.0131656 0.0028703 0.000762908 
1037 1 10.1491 9.38733 2.5384 -0.00331496 -0.00295369 0.00185009 
1038 1 11.3876 9.34292 1.70001 0.000126474 0 0 
1040 1 11.3642 9.45477 5.17684 -0.00826381 0.00401702 0.000198345 
1041 1 10.1714 6.9051 9.6476 0.00224673 -0.00175409 -0.0023257 
1043 1 10.0656 5.61688 10.5688 0.00461723 -0.0101987 0.00474143 
1044 1 11.4148 6.90132 8.73081 -0.000611981 0.00260628 -0.00105255 
1047 1 11.3675 5.62344 11.4536 0.00470845 -0.00181154 -0.00569588 
1048 1 11.439 6.88241 12.3489 0.00409618 -0.00336227 0.00757451 
1049 1 10.1544 8.14819 10.5253 0.00742962 -0.00323558 -0.00483348 
1050 1 11.4277 8.18794 11.4323 0.00384239 0.00116763 0.00598558 
1051 1 10.1194 9.378 13.1671 0.0041584 0.00132199 -0.000399742 
1052 1 10.1487 6.87392 13.2181 -0.00369214 -0.00422794 0.00708299 
1061 1 10.1354 9.40931 9.65622 7.65584e-05 0.00134573 0.00308656 
1062 1 11.4032 9.40163 8.74418 0.000645137 0.00687678 -0.00446674 
1064 1 11.3671 9.40875 12.3182 0.000706219 -0.00264401 -0.00039372 
1122 1 10.0885 5.67277 14.1326 1.65655e-05 0.00153 -0.00129311 
1125 1 11.3801 5.61516 14.9895 -0.00360854 0.000446547 0.00664938 
1128 1 11.4041 6.91397 15.8969 -0.00476967 -0.00233652 0.0023163 
1132 1 10.1066 8.10149 14.0441 0.0018197 0.00423633 0.00638943 
1133 1 11.3766 8.13325 14.9411 -0.00239778 0.00229866 0.00504111 
1134 1 10.0756 9.44881 16.7484 0.0055974 0.00450012 0.00206184 
1135 1 10.1297 6.97217 16.8539 0.00289681 0.00128124 -0.00227715 
1147 1 11.3804 9.40877 15.7823 0.000728065 0.00101683 0.00348997 
1681 1 0.0623823 11.9501 2.55068 0.00227599 0.0014623 0.00375648 
1682 1 2.53185 10.6498 3.41247 -0.00446937 0.00358788 -0.00187625 
3499 1 1.30778 24.4779 15.7282 -0.000747466 -0.00442301 0.00256637 
1684 1 1.32983 11.9434 1.7 -0.000204318 0 0 
1685 1 3.86098 10.6484 4.30735 -0.00665903 0.00140979 -0.00669783 
1686 1 2.59014 11.916 6.04384 0.00540772 -0.00587729 -0.00264392 
1687 1 1.36176 10.7031 4.30051 0.00148792 0.00334126 -0.00137712 
1688 1 2.56269 10.6398 6.98067 0.00201179 0.000485361 0.00297233 
2561 1 0.0419695 18.1997 10.5111 -0.00265314 -0.00760875 -0.00173759 
1690 1 1.33493 11.9201 5.2288 -0.00117569 -0.0046043 0.00495737 
1691 1 3.84276 10.6525 7.89338 -0.000498897 -0.00395417 0.00500301 
1692 1 1.33768 10.6429 7.90107 -0.00387194 -0.00430913 0.00263417 
1696 1 0.0504151 11.8947 6.11408 0.00514826 0.00780749 0.00241826 
1699 1 2.5637 11.9365 2.56698 0.00564485 -0.00049339 -0.00190803 
1701 1 3.83933 11.9434 1.7 -0.000127784 0 0 
1705 1 3.81212 11.9606 5.17471 0.00155148 0.000317142 -0.00502835 
3506 1 5.10535 20.7574 14.0831 -0.00862362 0.0004848 0.00238548 
1714 1 2.59195 10.6739 10.4937 0.00753727 -0.0016436 -0.00275156 
2646 1 0.0503519 19.4549 16.7393 -0.00964142 -0.0101538 0.00458682 
1716 1 1.28855 11.87 8.71026 0.00479938 -0.00754224 0.00203462 
1717 1 3.81423 10.7348 11.4298 -0.000383309 0.00141506 -0.00508721 
1718 1 2.60509 11.9354 13.1434 -0.00713759 -0.00653005 -0.00564213 
1719 1 1.33402 10.6589 11.4344 0.00461188 0.00775531 -0.00396822 
1720 1 1.34502 11.897 12.2663 0.00650034 -0.00431987 -0.00818892 
3492 1 3.85742 21.9595 15.7921 0.00121358 -0.00239588 0.00312995 
1725 1 2.5634 11.8815 9.62356 -0.00458703 0.00273399 0.00275167 
1727 1 3.82638 11.9112 8.77653 0.00383623 -0.00628345 -0.00258742 
1731 1 3.94389 11.9661 12.3335 -0.00249362 -0.00240432 0.0103669 
1737 1 5.10617 11.9137 2.56716 0.00969672 -0.00351628 0.00126026 
1738 1 7.56651 10.6842 3.46087 -0.00408021 0.00135544 -0.00253175 
1739 1 5.08417 10.683 3.45497 -0.00107608 0.00173538 0.000719233 
1740 1 6.35873 11.9434 1.7 0.000204763 0 0 
1741 1 8.82222 10.6431 4.31198 -0.00385867 -0.00182201 0.00246552 
1742 1 7.5662 11.8694 6.07909 0.00348362 -0.00423986 -0.000387084 
1743 1 6.28421 10.7097 4.35554 0.00167375 -0.00115234 0.00301875 
1744 1 7.62607 10.6436 7.01984 -0.00941656 -0.00191438 0.0110604 
1745 1 5.11758 10.6783 6.99236 -0.00564103 -0.00107224 0.00507533 
1746 1 6.34739 11.9184 5.19756 0.000958435 -0.00324195 9.38152e-05 
1747 1 8.87143 10.6422 7.87358 -0.00172208 -0.00443965 0.00190407 
1748 1 6.33875 10.6388 7.87401 -0.00180383 0.00386241 0.00729103 
1752 1 5.05656 11.9223 6.10745 -0.00748189 -0.00131417 0.00309976 
1755 1 7.63751 11.9257 2.58377 0.00556392 -0.00504953 0.00248151 
1757 1 8.86823 11.9434 1.7 -0.000127281 0 0 
1761 1 8.79177 11.9424 5.20065 -0.00152795 -0.00597308 0.00650928 
1769 1 5.0808 11.9132 9.65976 0.0030918 -0.0166952 0.00902881 
1770 1 7.6234 10.6731 10.5272 -0.00207577 -0.000917773 -0.00449323 
1771 1 5.04085 10.64 10.5145 -0.00187583 -0.000453589 -0.00319178 
1772 1 6.3436 11.8916 8.78379 -0.000392473 -0.00897118 -0.000822421 
1773 1 8.87528 10.6631 11.4546 0.000160502 -0.00557975 -0.000674122 
1774 1 7.69008 11.89 13.2581 -0.00554074 0.00246617 0.00130848 
1775 1 6.29266 10.6803 11.4358 0.00105831 -0.0020549 -0.000237723 
1776 1 6.37796 11.9285 12.3258 0.00187145 -0.00689343 -5.074e-05 
1780 1 5.16358 11.9106 13.1972 -0.00187275 0.00418638 -0.00377154 
1781 1 7.59674 11.8979 9.6815 0.00400969 -0.00528161 0.00232575 
1783 1 8.84416 11.8459 8.81618 0.00629301 -0.00491594 -0.00275156 
1787 1 8.8729 11.9089 12.3892 -0.000126049 2.53252e-05 -0.0027174 
1793 1 2.57971 10.6765 14.067 -0.00450917 -0.00239189 -0.0102543 
3413 1 0.0831724 24.484 9.58402 0.0030515 0.00946269 0.00364702 
1795 1 3.89838 10.6797 14.9304 0.00331239 0.00426016 0.00294562 
1796 1 2.58862 11.9401 16.7036 0.00039226 0.00388991 -0.00705609 
1797 1 1.31026 10.6454 14.9103 0.00650959 -0.0120339 -9.73234e-05 
1800 1 1.3349 11.8908 15.8456 0.00397415 -0.00990942 -0.00576788 
873 1 0.142315 6.85873 9.6693 -0.0026824 0.00308461 -0.00183019 
1812 1 3.85634 11.9382 15.7913 0.00744344 -0.00027002 0.00215831 
1825 1 7.61051 10.6517 14.1741 0.00744296 0.00254694 0.00438401 
1826 1 5.13331 10.6921 14.0975 -0.00433628 -0.000711337 -0.00159511 
1827 1 8.85751 10.6218 15.0589 0.00249551 0.00384856 0.00553379 
1828 1 6.39821 10.6609 15.0228 -0.00292702 -0.00079004 0.0024431 
1830 1 6.35734 11.9579 15.9173 -0.0070911 0.00155242 0.00120024 
1834 1 5.05969 11.945 16.7951 0.00127566 0.000863654 0.000114682 
1838 1 8.88854 11.9825 15.8956 -0.00467759 -0.00513921 0.000554973 
1849 1 10.1129 11.9226 2.54 0.000366027 -0.00425651 -0.00859287 
1851 1 10.0933 10.6908 3.40835 0.00312455 -0.0040097 -0.000515005 
1852 1 11.3876 11.9434 1.7 -4.04253e-05 0 0 
1855 1 11.3668 10.7211 4.28782 -0.00106834 -0.00418728 0.00623395 
1857 1 10.1158 10.6583 6.9808 -0.00263183 0.00743851 0.000510074 
1858 1 11.3026 11.9636 5.18606 -0.00452612 0.00283935 -0.00177584 
1860 1 11.3744 10.6577 7.89794 0.00702437 -0.00162424 0.00709809 
1864 1 10.0256 11.9141 6.15025 0.00666684 -0.00236287 0.00667038 
1881 1 10.0697 11.9003 9.62807 0.000713985 -0.00708315 0.00458077 
1883 1 10.1325 10.6943 10.566 -0.00326919 -0.000662904 0.000609265 
1884 1 11.3321 11.9374 8.70438 -0.00422182 0.00300446 0.000433008 
1887 1 11.3896 10.6414 11.4329 -0.00561423 0.00516809 -0.00167819 
1888 1 11.3823 11.9194 12.328 -0.000667467 0.00696369 0.00121359 
1892 1 10.1434 11.9591 13.214 -0.00391886 -0.00340252 -0.0092963 
1962 1 10.1129 10.6399 14.0843 -0.00119986 -0.00288184 0.00228916 
1965 1 11.3723 10.6797 14.9458 0.00485224 -0.00399118 0.000697428 
1968 1 11.3635 11.9297 15.8085 -0.00786708 0.000468972 -0.00363131 
1975 1 10.1595 11.9781 16.7825 0.00238073 -0.000280435 0.00443523 
1843 2 7.59813 12.3442 16.7465 -0.000605374 -0.00491606 -0.00775285 
3512 1 6.35423 23.2241 14.9369 -0.0026261 0.00293982 0.0014947 
3513 1 5.09717 24.4434 16.7399 -0.00665607 -0.00149742 0.00636582 
3514 1 5.10813 21.9508 16.7626 -0.000745793 -0.00118961 -0.00117274 
3516 1 7.65812 23.2333 14.0699 0.00133365 -0.0118474 0.00200192 
3519 1 8.91126 24.4234 15.968 -0.00597792 -0.00463376 -0.00164688 
3518 1 8.85547 22.015 15.8719 -0.00967271 -0.00900385 -0.00439053 
3517 1 8.91996 23.2309 14.9777 -0.00439461 -0.00652601 0.00904879 
3520 1 6.34949 24.4318 15.8879 -0.000108625 0.0058952 0.00810971 
3523 2 7.60822 22.4577 16.6749 -0.0018797 -0.00184667 0.000341895 
3524 2 7.60715 24.054 16.6614 0.00680951 9.22986e-06 0.00189717 
3529 1 10.1405 21.9251 2.58278 -0.0102683 0.00638437 -0.00331874 
3531 1 10.1494 20.722 3.48999 0.00218663 -0.00176199 -0.00488489 
3532 1 11.3876 22.0012 1.7 3.85286e-05 0 0 