ITEM: TIMESTEP
50000
ITEM: NUMBER OF ATOMS
20688
ITEM: BOX BOUNDS pp pp pp
0 50.289
0 50.289
0 243.135
ITEM: ATOMS id type xu yu zu vx vy vz 
2 1 0.583075 0.569144 3.43836 0.00657564 -0.00105429 0.0039664 
1059 1 11.8828 6.83633 12.2084 -0.000129747 -0.000585058 0.00112332 
5 1 1.85226 0.587472 4.29724 -0.00168941 0.000641502 -0.00572406 
6 1 0.557226 1.84398 6.10978 0.00226733 -0.00501438 0.00936312 
8 1 0.575274 0.587808 6.97586 0.00197093 0.000990405 0.00341209 
11 1 1.8317 0.624715 7.84265 0.00678911 -0.00227433 0.00543445 
19 1 0.5959 1.85282 2.59339 -0.0028869 -0.00242255 -1.11063e-05 
20 1 0.577152 4.3612 2.59266 -0.00269401 0.0027551 -0.00555286 
21 1 1.83933 1.88561 1.7 -0.000577926 0 0 
22 1 0.633284 3.11191 3.5027 0.000177227 8.17714e-05 0.00256514 
23 1 1.83932 4.31401 1.70001 -0.00067656 0 0 
24 1 1.92019 3.10133 4.34396 -0.00650551 0.00153918 -0.0024956 
25 1 1.82246 1.81804 5.20553 -0.00131628 0.00506364 0.000989032 
26 1 0.540828 3.08006 7.03387 0.00404402 -0.00543823 0.00312877 
27 1 1.82957 4.32838 5.23073 -0.00732044 -0.00797682 0.00434615 
28 1 1.79472 3.0554 7.90883 0.00429947 0.00614707 3.87025e-05 
31 1 0.559311 4.33294 6.11014 0.00361296 -0.00240756 -0.00800186 
195 1 11.9234 4.38878 5.2717 -0.00244325 -0.00778632 -0.0027366 
34 1 0.561211 0.629606 10.5513 0.00102662 0.00368886 0.0106366 
37 1 1.82848 0.64468 11.4106 0.0014348 0.00451203 -0.00204394 
38 1 0.579398 1.87466 13.2084 0.00579403 0.00115975 -0.00699768 
219 1 11.9165 1.88638 12.3331 0.00577231 -0.000331272 -0.000491354 
45 1 0.576217 1.90891 9.61853 0.00629804 0.00818334 0.00468846 
46 1 0.640488 4.38242 9.64976 -0.00430226 0.0100766 -2.0351e-05 
47 1 1.83544 1.84543 8.78866 -0.0056355 0.00284036 0.00156417 
48 1 0.635035 3.11469 10.5417 0.00365636 0.00746578 -0.00444267 
49 1 1.94342 4.3475 8.73408 0.00118391 0.00101117 0.000850981 
50 1 1.8911 3.11586 11.4407 0.00201058 0.00164802 -0.000181473 
51 1 1.86884 1.86939 12.3016 0.00544979 0.000626105 0.00778557 
52 1 1.87523 4.40778 12.3122 0.00214408 0.00851574 -0.00446635 
55 1 0.557673 4.34459 13.203 0.0060414 0.00573553 -0.000490355 
57 1 3.05668 1.85755 2.53169 0.000999169 0.00719435 0.000815181 
58 1 5.62185 0.570154 3.50964 -0.00391795 -0.00362341 -0.00541845 
59 1 3.15173 0.578581 3.41017 -0.000282261 -0.00134793 5.13576e-05 
60 1 4.35873 1.88561 1.7 3.93037e-05 0 0 
61 1 6.88501 0.620632 4.33586 0.00582807 -0.00542002 -0.00153828 
62 1 5.60933 1.86823 6.07336 -0.00805524 0.0061061 -0.0101049 
63 1 4.4129 0.606014 4.32475 -0.00632064 0.00753 0.00378539 
64 1 5.60556 0.630964 6.96873 -0.00501124 0.00585192 0.000138738 
65 1 3.05447 0.599777 6.97445 0.000545992 0.00702563 -0.00073522 
66 1 4.36302 1.86045 5.23255 -0.00105422 1.93468e-05 -0.000301859 
67 1 6.91141 0.597946 7.89182 7.91824e-05 0.00292389 -0.00152604 
68 1 4.30457 0.613459 7.87015 0.0015934 0.00679161 -0.0171921 
69 1 3.104 3.09507 3.44967 0.0014489 -0.0022031 0.00415617 
70 1 4.33857 3.09773 4.34146 0.00451737 0.00197657 -0.000623243 
71 1 3.07171 4.33322 6.1831 -0.00778931 0.0025304 -0.00778004 
72 1 3.10423 1.82692 6.07856 -0.000163175 0.000592321 -0.00836862 
73 1 3.0438 3.06897 7.0225 -0.00136463 -0.000433527 -0.0120813 
74 1 4.28315 3.13181 7.91786 0.00204704 -0.00780958 -0.00783216 
75 1 5.62586 1.83209 2.61411 0.00170412 0.00391681 0.000284615 
76 1 5.66101 4.34926 2.56128 0.00752477 -0.00823996 0.0108388 
77 1 6.86823 1.88561 1.7 -3.45877e-05 0 0 
78 1 5.60433 3.1112 3.44548 0.00232803 -0.00410807 -0.00437955 
79 1 6.86822 4.31401 1.70001 0.000537893 0 0 
80 1 6.87506 3.09864 4.33492 0.0094362 0.00402677 -0.00329119 
81 1 6.88254 1.87713 5.22119 0.00883939 0.00594279 -0.00051818 
82 1 5.56164 3.09588 6.99585 -0.00554254 0.00591361 -0.00117953 
83 1 6.87293 4.35845 5.20985 0.0028786 -0.00387897 0.00287114 
84 1 6.84836 3.05122 7.85254 0.00611722 0.000890132 -0.000604703 
85 1 3.05632 4.33685 2.53535 -0.00551669 -0.000411701 0.0051035 
86 1 4.35871 4.31402 1.70001 3.21379e-05 0 0 
87 1 5.65114 4.34243 6.12967 -0.000194182 0.00592861 -0.0107159 
88 1 4.35302 4.31164 5.27973 -0.00288369 -0.00312832 0.00656035 
89 1 3.10055 1.87524 9.66234 -0.00514377 0.0052506 -0.00410957 
90 1 5.60186 0.563725 10.4841 0.00472205 0.000606571 -0.000944883 
91 1 3.0965 0.624821 10.5442 0.00221584 0.000417573 -0.0012779 
92 1 4.34821 1.8541 8.81392 0.00464654 0.00421513 0.00341283 
93 1 6.83235 0.629607 11.3682 0.0049197 -5.66879e-05 0.000950329 
94 1 5.61097 1.88608 13.2172 0.00272915 0.0100577 0.00455552 
95 1 4.34445 0.588222 11.4189 0.00494094 0.00234456 0.000670036 
96 1 4.35834 1.87925 12.3007 0.000231872 -0.000579369 -0.00022832 
97 1 3.1436 3.09492 10.5031 -0.00587404 -0.000762073 0.00554664 
98 1 4.34719 3.12458 11.4055 -0.00441288 0.00262112 0.00256059 
99 1 3.1175 4.39172 13.2147 -0.00228314 -0.00246134 0.0013917 
100 1 3.14695 1.91724 13.2068 -0.00401979 0.000873224 0.00128443 
101 1 5.63017 1.839 9.62941 -0.00304596 0.0028954 0.00230296 
102 1 5.60325 4.35471 9.6577 -0.00182335 -0.000491087 -0.00260549 
103 1 6.95083 1.86354 8.78305 0.00363731 -0.00411837 -0.000554217 
104 1 5.59633 3.05651 10.5445 0.00129049 0.00942646 -0.000756922 
105 1 6.83121 4.30836 8.73656 0.00822692 -0.000732697 -0.0026194 
106 1 6.84797 3.16554 11.4603 0.00273394 0.00458387 0.00383896 
107 1 6.85085 1.87214 12.3225 0.0108758 -0.00586918 0.00467339 
108 1 6.83458 4.42212 12.3364 0.00781887 -0.0016146 -0.00303142 
109 1 3.16416 4.4071 9.67061 -0.00111096 -0.00375694 0.00584736 
110 1 4.35091 4.38901 8.73789 -0.00222833 0.00057006 -0.000458431 
111 1 5.58073 4.39409 13.1988 -0.00194231 0.00533866 0.00341649 
112 1 4.37792 4.39155 12.2876 -0.00410705 -0.00370229 0.00181087 
113 1 0.627065 0.582169 13.9944 0.000768576 -0.00465232 -0.00606839 
115 1 1.86721 0.622745 14.8721 0.003205 -0.0040753 -0.00495474 
116 1 0.615124 1.86886 16.5984 0.000716151 0.00683948 0.00644535 
1854 1 10.655 11.8933 6.1187 -0.00234345 0.00436633 -0.00215526 
130 1 0.536742 3.10296 14.0671 -0.00215644 -0.0026364 -0.00519483 
131 1 1.84522 3.10535 14.8762 0.00137745 0.00179486 0.00171271 
132 1 1.84387 1.85441 15.7421 -0.0038897 -0.0033771 0.00540718 
134 1 1.86295 4.31869 15.8244 0.000301145 -0.00334688 -0.000949686 
138 1 0.582216 4.35313 16.6838 0.0028048 -0.010257 -0.000643846 
145 1 5.6429 0.588788 14.0721 -0.00162827 0.00860271 -0.000678947 
146 1 3.14328 0.597319 14.0453 0.0100701 0.00542723 0.00584187 
147 1 6.81461 0.604354 14.9749 0.00119576 0.00134234 0.00532047 
148 1 4.41207 0.587244 15.0123 -0.000876967 -0.000429906 -0.00273209 
150 1 4.39127 1.8536 15.8364 -0.0107994 0.00882226 0.00329481 
151 1 3.11671 3.14964 14.0467 0.00716326 -0.0030725 -0.0055949 
152 1 4.32199 3.12889 14.9716 -0.00881178 0.00159111 0.00558699 
153 1 3.05717 4.34344 16.7746 -0.00523036 -0.00185558 -0.00608039 
154 1 3.10267 1.78597 16.689 -0.00422642 0.000251267 -0.00541436 
156 1 5.59719 3.16421 14.1007 -0.00144526 -0.0100637 -0.00177655 
157 1 6.86231 3.14659 14.9451 0.00511045 -0.0104335 0.0043559 
158 1 6.81994 1.88145 15.8896 0.0057393 -0.00460071 0.000184223 
159 1 6.86469 4.31955 15.8883 -0.00489316 -0.00357161 -4.61718e-05 
160 1 4.34456 4.386 15.9367 0.00411075 -0.00042838 0.000958239 
163 2 5.57724 2.26998 16.6683 -0.00159963 0.00448094 -0.00589146 
164 2 5.60929 3.87897 16.679 -0.000331406 0.00287595 -0.000548105 
169 1 8.1495 1.80192 2.55945 -0.00229926 0.00808398 -0.000717943 
171 1 8.18077 0.61304 3.44824 -0.00629231 0.00617044 -0.0022131 
172 1 9.38763 1.88561 1.7 0.000207293 0 0 
175 1 9.41336 0.601224 4.37325 0.00530473 -0.00314019 -0.00888551 
177 1 8.15853 0.58951 7.01091 0.000246932 0.0051969 0.00369836 
178 1 9.42759 1.84337 5.27592 0.00049388 -0.000792752 -0.00285555 
180 1 9.4245 0.59523 7.88814 0.0113292 0.00172106 -0.00981824 
181 1 8.1438 3.10333 3.47976 -0.000227883 0.0053376 -0.00714687 
182 1 9.38169 3.09542 4.38134 0.00960372 0.000630239 -0.00624495 
183 1 8.14679 4.35459 6.10176 -0.0022551 -0.00357786 -0.00293869 
184 1 8.12408 1.87345 6.09573 0.00138845 -0.00201949 -0.00120923 
185 1 8.1367 3.13079 6.99084 0.00346642 -0.000731922 0.00343493 
186 1 9.39051 3.09871 7.88002 0.00755567 0.00141805 0.000216344 
197 1 8.15541 4.36668 2.5547 -0.00559928 4.16264e-06 0.00185107 
198 1 9.38761 4.31402 1.70001 0.000162329 0 0 
200 1 9.41941 4.37239 5.22852 -0.00744979 -0.00280631 -0.00545214 
201 1 8.12409 1.86773 9.68556 0.000897512 -0.00564102 -0.0036741 
203 1 8.07361 0.603184 10.486 0.00464709 -0.00739549 0.00297239 
204 1 9.35489 1.86578 8.77134 0.00837452 0.00545304 -0.0039319 
207 1 9.36158 0.587908 11.3606 -0.00702197 -0.0074713 -0.00447602 
208 1 9.35791 1.85973 12.287 0.00566347 -0.00172845 0.00125157 
209 1 8.13418 3.07858 10.5835 0.00387193 0.00437478 0.00115536 
210 1 9.35646 3.1261 11.4473 0.00279019 0.000507334 -0.00676152 
211 1 8.12475 4.3906 13.1789 -0.000633253 -0.00387455 0.00363651 
212 1 8.08903 1.87022 13.1952 -0.00758144 0.00377208 -0.0022027 
221 1 8.05127 4.31583 9.66322 -0.000873627 0.00482911 0.00742539 
222 1 9.36409 4.37714 8.8084 -0.00523818 -0.00153979 0.00259516 
224 1 9.32306 4.36792 12.2982 -0.00196209 -0.0105083 -0.000116657 
282 1 8.08316 0.652897 14.0928 -0.00116613 -0.00917075 0.00308777 
285 1 9.35147 0.574296 14.9813 0.00144195 0.00681844 -0.00218944 
288 1 9.35601 1.82097 15.8926 -0.00502187 0.00369167 0.00317248 
292 1 8.14939 3.12015 14.0717 0.00148793 -0.00225386 0.00402621 
293 1 9.36089 3.07701 14.9718 -0.00143711 -0.000579966 0.011027 
294 1 8.11805 4.27295 16.824 0.00574353 0.00930414 0.0027997 
295 1 8.11518 1.83548 16.7765 0.00797929 0.00161401 0.00190772 
307 1 9.33795 4.29401 15.8702 0.0026445 -0.00278089 -0.00582237 
842 1 0.573573 5.60414 3.44218 0.000812126 -0.00166695 0.00941912 
845 1 1.85534 5.62479 4.32048 0.0016528 -0.0026223 0.00127953 
846 1 0.621222 6.88014 6.11971 0.000336071 0.00123052 -0.0054806 
848 1 0.663024 5.61993 6.94033 0.0134213 -0.0051356 0.010269 
851 1 1.89017 5.628 7.82055 0.00292696 0.002369 0.00281536 
1060 1 11.8386 9.39754 12.2561 -0.000312278 -0.00519414 -0.00614848 
859 1 0.564785 6.82304 2.56571 0.000910516 0.00120515 -0.000948832 
860 1 0.584482 9.32612 2.58011 -0.00377469 0.00412585 -0.00100805 
861 1 1.83933 6.91451 1.7 -0.000179788 0 0 
862 1 0.591409 8.0606 3.42863 0.000863681 -0.00415312 0.00156081 
863 1 1.83932 9.34291 1.70001 -0.000149169 0 0 
864 1 1.83547 8.05294 4.31657 -0.00332976 0.00593061 -0.00171026 
865 1 1.81352 6.83208 5.20306 -0.00391903 -0.00106642 -0.00160976 
866 1 0.549474 8.15003 6.99354 -0.00706421 -0.00537068 -0.00148657 
867 1 1.86781 9.35381 5.14578 -0.00451504 0.00447477 0.00787052 
868 1 1.76607 8.12679 7.88324 0.000976489 0.00361674 -0.00690822 
871 1 0.644506 9.39445 6.08403 -0.00794994 0.00252383 -0.00752316 
874 1 0.566523 5.63257 10.4819 0.00261111 -0.00366762 -0.00196405 
1853 1 11.9454 10.607 4.30826 -0.00295772 -0.0078803 -0.00438389 
877 1 1.86046 5.66239 11.3963 0.00264351 -0.011082 0.0028431 
878 1 0.571562 6.87835 13.2167 0.00530851 -0.00585947 0.0017893 
885 1 0.586719 6.8766 9.61403 0.00733753 -0.00136668 0.00377627 
886 1 0.586173 9.42259 9.69726 0.00949909 0.00330707 -0.00643992 
887 1 1.80094 6.87118 8.72866 -0.00170536 0.00611103 -0.0099576 
888 1 0.575502 8.12262 10.5231 -0.00257101 -0.000542828 0.00530075 
889 1 1.78289 9.41363 8.76884 0.0024292 0.00727372 -0.000347881 
890 1 1.76776 8.17434 11.4129 0.00310864 0.00699545 -0.00262689 
891 1 1.82844 6.8976 12.3209 0.00394603 -0.00187688 -0.00104888 
892 1 1.80488 9.42297 12.3148 0.00520085 -0.000311934 0.000242079 
895 1 0.563241 9.44359 13.2104 -0.0065399 -0.00555303 -0.0058148 
897 1 3.10729 6.83392 2.54606 0.00361655 -0.00491429 -0.00538863 
898 1 5.62481 5.58922 3.48822 0.00785269 9.99552e-05 0.013239 
899 1 3.15518 5.56227 3.4112 -0.00155565 -0.00380494 0.00503038 
900 1 4.35873 6.91451 1.7 0.000281407 0 0 
901 1 6.87967 5.63933 4.35281 -0.00124633 -0.00325966 -0.00590395 
902 1 5.58825 6.89479 6.09852 0.00772627 -0.000237989 -0.000391903 
903 1 4.36856 5.61092 4.39068 -0.00672066 -0.00132739 -0.0074614 
904 1 5.59149 5.628 6.96599 0.00472446 -0.000802446 7.20894e-05 
905 1 3.12277 5.64199 6.92679 0.00367697 -0.00402889 -0.00500839 
906 1 4.34124 6.88703 5.22954 0.000740329 -0.00237989 -0.00514118 
907 1 6.87591 5.57211 7.83331 -0.00314222 0.00719015 -0.00616367 
908 1 4.38106 5.60858 7.84267 0.00239549 0.00330763 0.00615248 
909 1 3.1079 8.07529 3.45789 -0.00475745 -0.00332489 -0.00397452 
910 1 4.33468 8.14456 4.29494 -0.00359032 0.00464179 -0.00786851 
911 1 3.11833 9.37577 6.06992 -0.00575682 0.000351611 -0.00549645 
912 1 3.09427 6.92512 6.05469 0.00492259 -0.00435941 0.000615337 
913 1 3.04757 8.14664 6.99263 0.00777861 0.00856814 0.00452672 
914 1 4.33515 8.08121 7.83854 -0.00166185 -0.000860664 -0.00612038 
915 1 5.63383 6.86175 2.59205 -0.0109737 0.00332255 0.000768939 
916 1 5.61014 9.38848 2.59261 -0.0033938 -0.00412148 0.00363795 
917 1 6.86823 6.91451 1.7 -0.000166708 0 0 
918 1 5.5968 8.13593 3.4724 -0.00889895 -0.00590312 -0.00543426 
919 1 6.86822 9.34291 1.70001 0.000216261 0 0 
920 1 6.88152 8.11 4.32589 -0.00644007 0.00301103 -0.005752 
921 1 6.8744 6.87648 5.22736 0.00375593 -0.00492849 0.00678927 
922 1 5.6072 8.13486 6.97549 0.00133484 0.00381222 -0.00105842 
923 1 6.87616 9.3824 5.25938 -0.00288163 -0.000516759 0.00494326 
924 1 6.85485 8.12838 7.82547 -0.00630107 0.00462827 -0.00233138 
925 1 3.10182 9.32485 2.54755 0.00419047 0.0143797 0.00106573 
926 1 4.35871 9.34292 1.70001 0.000103596 0 0 
927 1 5.61883 9.39304 6.08865 0.0036409 -0.00392843 -0.000662039 
928 1 4.36399 9.37741 5.20002 0.00482276 -0.00475129 0.000331761 
929 1 3.10952 6.91131 9.65011 0.00557331 -0.00425505 0.00343005 
930 1 5.62671 5.61446 10.5371 0.00026041 -0.00129629 0.00102987 
931 1 3.08026 5.6479 10.5506 -1.11894e-05 -0.00108025 -0.00538598 
932 1 4.38224 6.84952 8.70994 -0.0071848 -0.00406017 0.00168179 
933 1 6.86634 5.65499 11.4103 0.00326667 0.00286961 -0.00519052 
934 1 5.59376 6.90635 13.1945 0.00702184 -0.00255155 -0.00135533 
935 1 4.36268 5.65811 11.4538 -0.000108425 0.000758024 -0.00311829 
936 1 4.34303 6.92002 12.3261 -0.00433693 -0.00672761 -0.000637278 
937 1 3.03709 8.11655 10.5066 0.00209391 -0.00348074 0.00508711 
938 1 4.30881 8.16939 11.4406 0.00249445 -0.00393534 -0.00892794 
939 1 3.06588 9.37842 13.1778 -0.00327078 0.000496137 -0.000925364 
940 1 3.07765 6.90999 13.1945 0.00392198 0.00126312 -0.000388231 
941 1 5.6023 6.85756 9.59082 -0.00321624 0.00217046 0.00447973 
942 1 5.61847 9.32565 9.63147 -0.00478845 -0.0021634 -0.000781582 
943 1 6.88575 6.86621 8.71498 0.00611079 0.00676672 -0.000435502 
944 1 5.56534 8.09026 10.5183 0.00204723 -0.00105219 -0.00136521 
945 1 6.84209 9.30574 8.76863 0.00660794 0.0100348 0.00608406 
946 1 6.83714 8.10504 11.4184 -0.00272951 -0.000699887 0.00458581 
947 1 6.80168 6.88206 12.2894 0.00646482 -0.00141103 0.00642056 
948 1 6.83082 9.4228 12.3372 -8.57178e-06 0.0054636 -0.00845538 
949 1 3.03236 9.4086 9.62994 0.00203186 0.00187309 -0.00584948 
950 1 4.31052 9.33236 8.69757 -0.00344763 0.000398215 -0.00121124 
951 1 5.59759 9.4016 13.1855 -0.00574399 -0.00157117 0.00209226 
952 1 4.27574 9.41048 12.2884 0.00219146 -0.00643189 -0.00238031 
953 1 0.590371 5.57127 14.1063 0.00832795 -0.000691231 0.000283512 
955 1 1.84691 5.6206 14.9775 -0.007246 0.00115413 0.000152173 
956 1 0.621998 6.90575 16.6352 -0.00140004 -0.00158433 -0.00307184 
970 1 0.510584 8.1501 14.1185 0.00679845 -0.00123008 0.00452812 
971 1 1.84603 8.13505 14.9318 0.0026192 0.00334625 0.00736427 
972 1 1.86921 6.86302 15.7977 -0.00199422 6.25272e-05 0.0112198 
974 1 1.89031 9.38074 15.8404 9.43897e-05 0.00339507 -0.000785043 
978 1 0.5936 9.36538 16.6932 -0.000253257 0.00100641 0.00249585 
985 1 5.54851 5.6443 14.1685 0.00255645 -0.00067966 -0.00157991 
986 1 3.08438 5.63805 14.1056 0.00186791 0.00111797 0.000590264 
987 1 6.79597 5.65434 15.0226 -0.00432145 -2.28283e-05 0.00114823 
988 1 4.36693 5.64893 15.0383 -0.00149952 0.00187245 -0.00279939 
990 1 4.35139 7.004 15.7823 0.000131298 0.00183063 0.00254391 
991 1 3.08444 8.17555 14.0673 -0.00204813 0.00776117 -0.00235201 
992 1 4.30454 8.19761 14.9402 -0.000771326 0.00173106 -0.00385657 
993 1 3.12671 9.38626 16.8059 -0.00691094 0.00487211 -0.000622098 
994 1 3.07558 6.93933 16.744 -0.00266952 0.000416089 0.0095842 
996 1 5.62215 8.18416 14.0495 0.000957633 0.00474862 0.000711925 
997 1 6.88937 8.11667 15.0019 0.00202921 0.00223907 -0.00753001 
998 1 6.82884 6.9448 15.9314 0.00467227 0.00305356 0.000438903 
999 1 6.89938 9.36519 15.8661 0.000863674 0.00388412 0.00760144 
1000 1 4.35461 9.37967 15.8689 0.00167077 0.00105801 0.000584736 
1003 2 5.51949 7.42366 16.6259 -0.00217385 0.00484519 0.00813432 
1004 2 5.57207 8.96732 16.6138 -0.00474903 0.000917307 0.0063538 
1009 1 8.11263 6.89404 2.55126 -0.00263882 -0.00579507 0.000570835 
1011 1 8.13498 5.63146 3.40872 0.00197673 0.00217276 -0.00291461 
1012 1 9.38763 6.91451 1.7 -0.00055523 0 0 
1015 1 9.40051 5.61932 4.33158 -0.00422948 -0.000648587 0.00784701 
1017 1 8.10814 5.61775 6.99857 -0.0034647 -0.00313227 -0.00127096 
1018 1 9.42299 6.88573 5.25282 0.00159042 -0.0014258 0.00303807 
1020 1 9.37811 5.59759 7.86744 0.00840192 0.00301197 -4.42278e-05 
1021 1 8.18365 8.11591 3.4466 0.00496957 0.00626571 -0.00171887 
1022 1 9.3876 8.11673 4.30166 0.00128899 0.00532371 -0.00333384 
1023 1 8.11702 9.3736 6.10461 -0.00592534 -0.00685116 -0.00132436 
1024 1 8.12529 6.91202 6.10009 0.00695011 0.000931229 -0.00546204 
1025 1 8.11697 8.13311 6.97398 0.00767814 0.00767046 0.00403345 
1026 1 9.4069 8.13757 7.84436 0.00202865 0.00481355 -0.00733354 
1037 1 8.15182 9.38578 2.62213 0.00375813 0.00314861 0.00103766 
1038 1 9.38761 9.34292 1.70001 4.65975e-06 0 0 
1040 1 9.41415 9.33755 5.21774 -0.00801422 -0.00183436 -0.00207396 
1041 1 8.04623 6.85538 9.61531 -0.00956248 0.00572186 -0.0037722 
1043 1 8.11468 5.63474 10.5623 0.00239364 -0.00459893 0.00665346 
1044 1 9.36548 6.84822 8.74378 0.00839839 0.0063059 -0.00502331 
1047 1 9.42227 5.66466 11.4471 0.00365107 0.00155758 -0.00406009 
1048 1 9.38048 6.89843 12.2651 0.000303518 -0.00230761 -0.0022009 
1049 1 8.14151 8.11935 10.5082 0.001415 -0.000720575 0.0010127 
1050 1 9.35834 8.0967 11.351 0.00320136 -0.00123786 0.00617843 
1051 1 8.09797 9.40717 13.1796 0.00526574 0.00749929 -0.00261099 
1052 1 8.08204 6.87039 13.1728 0.0098864 0.00151659 0.00254945 
1061 1 8.13023 9.34232 9.63389 0.0027508 0.000895431 -0.000185317 
1062 1 9.37865 9.393 8.76905 -0.00129698 0.00351571 -0.00704991 
1064 1 9.34973 9.41333 12.2813 -0.00318469 -0.00874076 -0.0017926 
1122 1 8.06026 5.61303 14.0654 0.00435627 -0.00263843 0.00118895 
1125 1 9.35672 5.53458 14.9882 0.00039629 0.000894267 0.00248888 
1128 1 9.33983 6.87715 15.8063 -0.00292705 -0.00188864 0.00816131 
1132 1 8.12004 8.1401 14.0627 -0.00201987 -0.00322729 -0.0018003 
1133 1 9.38226 8.11223 14.9041 0.000144785 -0.000603552 -0.00332659 
1134 1 8.17133 9.35276 16.7858 0.00720024 0.00739727 0.00361391 
1135 1 8.10265 6.88106 16.7831 -0.00469732 -0.00262551 0.0042074 
1147 1 9.34841 9.36962 15.8096 -0.0130883 -0.00822295 -0.00535642 
1682 1 0.599223 10.5777 3.43537 -0.00489737 0.00512135 0.000491562 
1685 1 1.85134 10.5958 4.25891 -0.00497449 0.000897164 -0.00294893 
1686 1 0.595933 11.9495 6.15168 0.000149772 0.00531116 0.000533503 
1688 1 0.64869 10.6201 6.97105 -0.00802652 0.00300374 -0.00382227 
1691 1 1.86886 10.6411 7.91777 -8.5812e-05 -0.00221239 0.00596043 
1699 1 0.57113 11.8873 2.55797 -0.00532142 0.00509041 -0.00610176 
1701 1 1.83933 11.9434 1.7 -1.35821e-06 0 0 
1705 1 1.79677 11.8296 5.20263 -0.000469847 0.00524004 0.00440755 
1714 1 0.540781 10.6519 10.5671 0.0112273 -0.00183921 0.0105809 
1717 1 1.81293 10.6263 11.4034 0.00262932 -0.000871352 0.00291994 
1718 1 0.544986 11.9131 13.2209 -0.00944799 0.00188762 0.00148286 
1725 1 0.553094 11.8704 9.64511 -0.00229015 0.0050189 0.00655553 
1727 1 1.83819 11.8577 8.72728 0.000628194 0.00252024 0.00393796 
1731 1 1.7995 11.879 12.3118 0.0029238 0.00407467 0.00283696 
1737 1 3.10946 11.8599 2.56323 0.00173425 -0.00347859 -0.00312871 
1738 1 5.63881 10.6405 3.44398 0.00740919 -0.00159027 -0.00300629 
1739 1 3.13957 10.6051 3.41036 0.000531802 -0.000184301 0.00258983 
1740 1 4.35873 11.9434 1.7 3.13911e-05 0 0 
1741 1 6.89629 10.6721 4.35944 -0.00491506 -0.00133086 -0.00468728 
1742 1 5.62247 11.9263 6.08644 -0.00927214 -0.00791718 0.00174243 
1743 1 4.38881 10.6159 4.33815 -0.00353504 0.00589654 0.00695591 
1744 1 5.59897 10.6608 6.9976 -0.00182592 0.0117168 0.00100477 
1745 1 3.08809 10.6089 6.95841 0.00164891 -0.00289859 0.00133911 
1746 1 4.33675 11.8526 5.22841 0.0034773 -0.00846062 -0.00520814 
1747 1 6.8783 10.5933 7.89373 -0.000829784 0.00426851 0.00998248 
1748 1 4.35105 10.6686 7.8466 0.00494993 -0.000653224 -0.00315188 
1752 1 3.08533 11.8606 6.07326 -0.00169139 -0.00293093 0.00221321 
1755 1 5.61978 11.8985 2.56806 0.000298606 0.00618308 -0.00376953 
1757 1 6.86823 11.9434 1.7 -0.000160244 0 0 
1761 1 6.85971 11.9242 5.24787 -0.00289363 -0.00415022 -0.000987616 
1769 1 3.12034 11.8828 9.62385 0.00512898 -0.00412493 0.00425753 
1770 1 5.62844 10.6611 10.4997 -0.00632192 0.00336854 -0.00616833 
1771 1 3.08002 10.6569 10.5241 0.00342003 0.00874749 0.00142338 
1772 1 4.39354 11.886 8.73681 0.00355283 0.00485379 -0.000265642 
1773 1 6.81169 10.6562 11.4198 0.00372206 -0.000619714 0.00589014 
1774 1 5.61263 11.8733 13.2707 -0.00370485 -0.00292893 -0.0106557 
1775 1 4.3423 10.6809 11.4171 -0.00438266 0.00871132 0.00565092 
1776 1 4.37183 11.9072 12.3327 0.00620914 0.00470587 0.00106657 
1780 1 3.09579 11.9318 13.1781 -0.00391199 -0.00413982 -0.00675646 
1781 1 5.60911 11.9207 9.59026 -0.00362813 -0.00222942 0.00598222 
1783 1 6.89966 11.8476 8.7502 0.00125119 0.00691606 -0.000754597 
1787 1 6.83823 11.9021 12.3477 0.00184397 0.00555686 -0.00212777 
1793 1 0.547042 10.6679 14.1324 0.00397445 -0.00338977 -0.00495108 
1795 1 1.84156 10.6849 14.974 -0.000734677 -0.000337948 0.00215033 
1796 1 0.559213 11.9075 16.7011 0.00106261 0.00919386 0.00361859 
1812 1 1.82207 11.8918 15.9345 -0.0032015 -0.00145997 -0.00631243 
1825 1 5.55879 10.6337 14.1094 0.00359324 0.00385149 0.00282974 
1826 1 3.12864 10.6873 14.1031 -0.000287243 0.00148347 -0.00826239 
1827 1 6.82563 10.6231 15.0218 0.00399565 -0.00423149 -0.00030371 
1828 1 4.3741 10.6674 15.0483 -0.00613202 0.00404768 0.00508188 
1830 1 4.35494 11.9559 15.9158 0.00134067 0.007017 -0.000940887 
1834 1 3.10247 11.9605 16.7922 -0.00167402 -0.00806249 0.00500257 
1838 1 6.85594 11.8911 15.87 0.00544625 -0.00763431 -0.0012716 
1849 1 8.11666 11.8404 2.55038 0.00685899 0.00117313 0.00820337 
1851 1 8.16419 10.6679 3.46312 -0.00112869 0.00477542 -0.00815606 
1852 1 9.38763 11.9434 1.7 -0.000482786 0 0 
1855 1 9.41929 10.6349 4.37127 -0.00268023 -0.00256509 0.00130252 
1857 1 8.09373 10.6391 6.98332 -0.00701315 -0.00689542 0.00136535 
1858 1 9.41185 11.9156 5.26389 0.00181883 -0.00192546 -0.0046033 
1860 1 9.36915 10.6561 7.86682 0.00369977 -0.0031851 0.00410929 
1864 1 8.15202 11.8855 6.09917 -0.00673243 0.000127942 -0.0051267 
1881 1 8.11886 11.8323 9.64912 -0.00848527 -0.0071058 -0.00461507 
1883 1 8.08939 10.5958 10.531 0.0132106 -0.000365978 -0.00146587 
1884 1 9.38179 11.885 8.7343 0.00239745 -0.00468624 0.00129819 
1887 1 9.35329 10.6554 11.3803 0.00391993 -0.00984634 0.00502999 
1888 1 9.31193 11.9024 12.3104 -7.56367e-05 -0.00457465 0.00385737 
1892 1 8.11234 11.8868 13.1646 0.000750867 0.00427407 0.00243624 
1962 1 8.09028 10.6443 14.089 0.00618125 -0.00973056 0.00193877 
1965 1 9.35809 10.6673 14.9573 0.00308457 0.0038288 -0.00118391 
1968 1 9.39102 11.8807 15.8536 0.00444796 0.00210233 -0.00239875 
1975 1 8.16185 11.8753 16.7766 0.0017485 -0.00186442 0.00122348 
1843 2 5.63835 12.3414 16.7082 0.00265362 -0.00606385 0.0018008 
223 1 10.5647 4.32102 13.1799 0.00447221 -0.00311205 -0.00762978 
1042 1 10.6475 5.66091 10.5535 -0.00630663 0.000494042 0.00433702 
281 1 10.6262 0.579745 14.0861 -0.00080343 0.00671616 -0.00342354 
1010 1 10.6657 5.64713 3.40776 -0.0017918 -0.00772121 -0.000924225 
213 1 10.5887 1.88101 9.66123 0.000989839 -0.00340443 0.00899268 
170 1 10.6636 0.546405 3.46715 -0.00461552 -0.0132441 0.000821157 
1124 1 10.6223 6.86407 16.6759 0.000670462 0.000180998 0.00235214 
1039 1 10.6588 9.3705 6.0887 -0.00790567 0.00371824 0.00255584 
1850 1 10.6772 10.6471 3.49327 -0.00393439 0.00889484 0.00142725 
1027 1 10.5923 6.91662 2.55989 -0.00692254 0.00210907 -0.003425 
1867 1 10.5998 11.8831 2.55597 -0.00685981 -0.00255429 0.00215768 
190 1 10.6099 3.12441 3.49441 0.000955213 0.00929953 -0.000435587 
1063 1 10.6119 9.3734 13.1388 0.00141529 -0.00738902 -0.0113071 
1856 1 10.6612 10.6025 6.94739 0.00369985 0.00446094 0.00591759 
202 1 10.6213 0.598976 10.4837 -0.0128942 -0.0131241 -0.00143879 
1138 1 10.6328 8.13487 14.0145 -3.89544e-06 -0.0059318 0.00502307 
1014 1 10.6548 6.82924 6.08855 -0.000944625 -0.0118206 0.0071305 
206 1 10.6168 1.82055 13.1976 -0.00148928 0.00385213 -0.00306795 
1054 1 10.6406 9.37545 9.59865 0.00490648 0.00190097 0.00552278 
188 1 10.6384 4.34014 2.57039 0.00639091 -0.00676155 0.00217084 
187 1 10.6523 1.85229 2.57645 -0.00285348 0.00205586 -0.00426144 
214 1 10.6389 4.3873 9.70657 0.000832886 0.00639449 -0.00389557 
199 1 10.6954 4.37972 6.16888 0.00239646 -0.00132047 -0.000486365 
1046 1 10.6378 6.86062 13.1328 0.00746841 0.00082277 -0.0032384 
194 1 10.6626 3.1069 7.06385 -0.00746272 0.00395044 0.00572562 
298 1 10.5627 3.06765 14.0903 0.00105317 0.00871223 0.00346106 
1053 1 10.6451 6.88346 9.65187 -0.00099079 0.00376427 -0.00597026 
1030 1 10.6462 8.12486 3.44564 -0.000479575 -0.0064289 0.00660989 
216 1 10.5996 3.12832 10.6068 0.00608511 0.000505137 -0.00353614 
1121 1 10.6115 5.5909 14.0824 -0.00670133 0.00412094 0.00184057 
1016 1 10.6709 5.63427 7.05587 0.00557865 0.00428444 -0.00085555 
1028 1 10.6691 9.37487 2.57093 0.014157 -0.00523727 0.00332935 
1882 1 10.6172 10.6717 10.4811 -0.00662647 -0.00297815 0.00434948 
1961 1 10.6364 10.5962 14.0723 0.0100251 0.00292057 0.00595116 
174 1 10.7166 1.88762 6.13763 -0.00647584 -0.00334633 0.00402415 
1034 1 10.6543 8.10968 6.93301 -2.4616e-05 0.00731752 -0.00246678 
1056 1 10.6244 8.12156 10.4923 0.00247982 0.00135396 0.00444784 
1146 1 10.611 9.43799 16.6533 -0.00419982 -0.00117556 0.00275139 
1964 1 10.6166 11.8634 16.7062 -0.00212036 0.000707959 -0.00317037 
284 1 10.6376 1.86182 16.7136 0.000648915 -0.00179885 0.0111194 
1893 1 10.5865 11.9309 9.61934 0.00360731 0.000406605 0.00229354 
306 1 10.5995 4.32409 16.6817 0.0114664 0.00210912 0.00710563 
176 1 10.6718 0.58818 6.97617 0.00179279 0.00240272 -0.005214 
1886 1 10.5999 11.884 13.1772 -0.00182978 -0.0066156 -0.00162532 
1859 1 11.8782 10.6211 7.84794 -0.00361273 -0.00305487 0.00153054 
179 1 11.8566 0.620338 7.907 0.00461998 0.002389 -0.00163103 
1033 1 11.8984 6.79889 5.26897 0.0033668 -0.00248017 -0.00360627 
191 1 11.8971 4.31401 1.70001 -5.48903e-05 0 0 
1869 1 11.8971 11.9434 1.7 -0.00024059 0 0 
1029 1 11.8971 6.91451 1.7 -0.000347104 0 0 
189 1 11.8971 1.88561 1.7 0.000113758 0 0 
1123 1 11.9144 5.59479 14.9332 -0.000780023 0.00243938 -0.000220067 
1031 1 11.8971 9.34291 1.70001 0.000184133 0 0 
192 1 11.8899 3.19927 4.3984 -0.000172565 0.00925 0.00354434 
1963 1 11.8942 10.6607 14.9337 -0.00607506 -0.00474257 -0.000723621 
1885 1 11.9242 10.6396 11.3889 -0.00798127 0.0095392 -0.00176935 
1013 1 11.936 5.61456 4.31646 -0.00237664 -0.00299957 -0.0015856 
1019 1 11.9242 5.57175 7.93693 -0.0041992 -0.00765371 -0.000407376 
1057 1 11.8906 9.34587 8.74875 -0.000577112 0.00338809 -0.00194895 
1032 1 11.9156 8.06435 4.35981 -0.00641654 -0.00908539 -0.00676541 
1873 1 11.8941 11.8527 5.21206 0.00126178 -0.00162345 -0.00170646 
220 1 11.8639 4.38395 12.3301 0.00266949 -0.00565303 0.000966759 
299 1 11.8335 3.06762 14.9902 -0.000318145 0.00166578 0.00275813 
217 1 11.9584 4.35749 8.75808 -0.00557726 0.00574414 -0.00783292 
173 1 11.9669 0.597892 4.38847 -0.00627455 -0.00526026 0.00349042 
218 1 11.9038 3.12796 11.4323 -0.00730314 0.00283819 0.000756801 
193 1 11.9642 1.84645 5.28483 0.00262928 0.00722836 0.00112924 
1055 1 11.9501 6.8604 8.77123 0.000189173 0.000751377 0.00834255 
205 1 11.8833 0.579972 11.4394 0.00281641 -0.00314408 -0.00809979 
215 1 11.8709 1.84204 8.80486 0.00199982 -0.00287802 -0.00110381 
196 1 11.8965 3.10704 7.91887 -0.00132296 -0.00174318 -0.00161653 
302 1 11.8532 4.34601 15.8083 0.00179774 0.00349324 0.00358493 
1142 1 11.909 9.39057 15.8016 0.000472029 -0.00283347 0.0121011 
1058 1 11.8615 8.16691 11.3745 0.00394738 3.18009e-05 -0.00364325 
1899 1 11.9064 11.8831 12.3013 0.000223007 0.00335262 0.00129162 
1036 1 11.9219 8.11671 7.87617 -0.00563 0.00111371 0.000395879 
1980 1 11.9068 11.8825 15.8576 -0.000316542 -0.0100308 -0.00762205 
300 1 11.8671 1.89305 15.8428 -0.000910143 -0.0080111 -0.0049127 
1045 1 11.9169 5.57734 11.393 0.00758044 0.00788957 -0.00986499 
1139 1 11.8609 8.15546 14.8982 0.00724129 -0.00900707 0.000379057 
1895 1 11.874 11.8736 8.74702 -0.00165735 0.00847447 0.00131284 
1035 1 11.9126 9.30316 5.21724 -0.00130599 0.000273132 -0.00114988 
1140 1 11.9007 6.86727 15.8162 -0.00078743 -0.00172557 0.00313504 
283 1 11.8844 0.610549 15.0112 0.00173515 0.00125324 0.0028835 
2803 1 11.9185 15.6052 14.9144 -0.00203724 0.00360456 -0.00145079 
2819 1 11.8606 18.177 14.9544 -0.000706263 -0.00265886 -0.000508891 
3579 1 11.8771 21.932 12.3159 -0.00600345 0.00262178 0.000831704 
1898 1 11.9324 13.1373 11.4479 0.00650384 -0.00254253 0.000646081 
3578 1 11.8854 23.2484 11.4128 -0.0029047 -0.000398363 0.00457048 
3556 1 11.8655 23.1896 7.86867 -0.00533116 -0.00283792 0.00202716 
2740 1 11.8371 19.3806 12.3159 0.00912615 -1.58887e-05 0.0023973 
1875 1 11.939 14.4115 5.17936 -0.00820322 0.00448775 0.00236755 
3662 1 11.8962 24.4429 15.8392 0.00417855 -0.0039522 0.00170248 
1979 1 11.8845 13.077 14.9939 -0.0115484 0.00388148 -0.00415166 
1897 1 11.8696 14.3458 8.76624 0.00065252 0.00115266 0.00440948 
1872 1 11.9152 13.178 4.32319 0.00256718 -0.00997904 0.0112561 