ITEM: TIMESTEP
15000
ITEM: NUMBER OF ATOMS
20688
ITEM: BOX BOUNDS pp pp pp
0 50.289
0 50.289
0 243.135
ITEM: ATOMS id type xu yu zu vx vy vz 
2 1 2.32615 0.620633 3.42102 -0.00661466 -0.00154479 0.00282519 
4 1 1.07983 1.88561 1.7 -0.00101378 0 0 
5 1 3.57504 0.580616 4.31744 0.00400342 -0.00299466 0.000313509 
6 1 2.32663 1.81364 6.1104 -0.000189796 0.00942652 -0.000487087 
7 1 1.03391 0.581085 4.27871 -0.006786 -0.00412389 -0.00762967 
8 1 2.36752 0.506574 6.92984 7.80845e-05 -0.00707583 -1.33376e-05 
10 1 1.02911 1.81877 5.27879 -0.00432589 0.00554663 -0.00167939 
11 1 3.56533 0.543456 7.88718 -0.00651074 0.00248694 0.00609563 
12 1 1.13232 0.528695 7.81413 0.00648136 0.0026378 0.00426849 
14 1 1.10267 3.08111 4.35265 0.00265593 0.00146314 -0.00556527 
18 1 1.09812 3.08959 7.91334 -0.000156031 -0.00957017 0.00195079 
19 1 2.28239 1.82559 2.55422 0.00452319 -0.000401544 0.00131476 
20 1 2.3486 4.3547 2.53424 0.00760504 0.00508725 0.011527 
21 1 3.58933 1.88561 1.7 -0.000415665 0 0 
22 1 2.3281 3.06771 3.47061 0.00897155 0.000866803 -0.00371812 
23 1 3.58932 4.31401 1.70001 0.000684616 0 0 
24 1 3.60308 3.05585 4.34019 -0.00155577 0.00144153 -0.00401882 
25 1 3.58828 1.81545 5.21993 -0.00224937 0.00272918 0.00414509 
26 1 2.32416 3.08408 7.01039 -0.00215641 -0.000960836 0.00480594 
27 1 3.61491 4.37067 5.21915 0.0103498 0.00620218 0.00122863 
28 1 3.54756 3.08503 7.8871 -0.00447603 0.00363409 0.00397855 
30 1 1.07981 4.31402 1.70001 3.46908e-05 0 0 
31 1 2.31201 4.33675 6.10836 -0.00168504 0.000975315 -0.00253409 
32 1 1.10176 4.34766 5.2702 -0.00224637 0.00205541 0.00398264 
34 1 2.34951 0.552752 10.5892 -0.000810132 -0.00332498 -0.00103761 
36 1 1.08109 1.83333 8.70837 0.00308687 0.000281416 -0.00285139 
37 1 3.64022 0.564279 11.4404 -0.00390346 -0.00514289 -0.00782646 
38 1 2.38645 1.8239 13.1509 -0.00699599 -0.0026783 0.00230927 
39 1 1.05699 0.588373 11.42 0.00143777 -0.00324608 -0.00466703 
40 1 1.10201 1.81364 12.3287 -0.000222827 0.00311465 0.00324089 
42 1 1.0992 3.07893 11.406 0.000952102 0.0108514 -0.00169212 
45 1 2.3073 1.77454 9.64332 0.00426402 -0.00637111 -0.00274996 
46 1 2.34908 4.33831 9.73581 0.00126192 -0.00296093 0.00161043 
47 1 3.57366 1.80579 8.78128 -0.00509279 -0.000389102 0.00479827 
48 1 2.29758 3.02738 10.5301 -7.76691e-05 -0.000800013 0.00294526 
49 1 3.53236 4.3385 8.79142 7.91413e-05 0.00493145 -0.00215181 
50 1 3.61624 3.08925 11.4408 0.00138752 -0.000208286 0.00549819 
51 1 3.63144 1.82392 12.27 -0.000361317 0.00652914 0.00238347 
52 1 3.57868 4.35118 12.2614 -0.00854539 0.00528442 0.00569433 
54 1 1.11182 4.37405 8.82236 0.00585139 -0.00136001 0.00233243 
55 1 2.35352 4.34969 13.2039 0.00516966 0.00220221 0.000686306 
56 1 1.05689 4.33419 12.2951 -0.000287433 0.00490362 0.00465147 
57 1 4.83161 1.814 2.5658 -0.00232579 -0.00358567 0.00252082 
58 1 7.33599 0.553815 3.46063 -0.0125331 0.0039008 -0.00365404 
59 1 4.84182 0.564987 3.43269 -0.00492374 -0.00490652 0.00378658 
60 1 6.10873 1.88561 1.7 -0.000150454 0 0 
61 1 8.61351 0.617499 4.33829 -0.00116311 -0.00652724 -0.00178975 
62 1 7.31723 1.86455 6.14296 -0.00293166 0.00736111 0.00948213 
63 1 6.11724 0.548988 4.33317 -0.000401569 0.00231434 -0.0042399 
64 1 7.36213 0.558462 7.05501 0.00543772 -0.00221852 -0.000544972 
65 1 4.81659 0.541369 7.00979 0.00465174 -0.00126865 -0.00212532 
66 1 6.09874 1.85539 5.23584 0.0071489 -0.00700639 0.00222579 
67 1 8.63201 0.605023 7.91384 0.0046696 -0.00525352 0.00199426 
68 1 6.09012 0.542015 7.93707 -0.00297966 -0.00162979 0.0114345 
69 1 4.90613 3.09108 3.44858 0.000118876 0.00365133 -0.0137492 
70 1 6.1882 3.12085 4.36098 -0.0107538 -0.0066199 0.000759759 
71 1 4.85927 4.34811 6.10609 0.00204179 -0.00160003 -0.000509538 
72 1 4.85476 1.82923 6.067 0.0066735 -0.00481425 0.00340808 
73 1 4.8626 3.12159 6.98101 0.00707455 0.0010395 0.0035405 
74 1 6.14209 3.07862 7.84096 0.000791013 0.000553918 -0.000676944 
75 1 7.39302 1.80074 2.53507 -0.00227326 0.0051838 0.00442235 
76 1 7.36422 4.31991 2.5527 0.000907628 -0.00132611 -0.00749018 
77 1 8.61823 1.88561 1.7 0.00038915 0 0 
78 1 7.40843 3.05962 3.45296 -0.00689644 -0.00158259 -0.00499131 
79 1 8.61822 4.31401 1.70001 0.000204912 0 0 
80 1 8.62932 3.13223 4.34882 0.0104218 0.000924541 0.00336947 
81 1 8.58614 1.85149 5.27396 -0.00323262 -0.00466262 0.00456544 
82 1 7.37 3.10824 6.99098 0.00471092 0.00397073 0.000623892 
83 1 8.62539 4.36474 5.23273 0.00679492 -0.00247229 -0.00751727 
84 1 8.60269 3.12399 7.84664 0.00175786 -0.00289235 -0.00374333 
85 1 4.88921 4.37043 2.59789 -0.0030435 0.00472566 0.00118474 
86 1 6.10871 4.31402 1.70001 -2.13617e-05 0 0 
87 1 7.31273 4.39456 6.153 -0.0087176 0.00441186 0.00108962 
88 1 6.09629 4.35527 5.21526 -0.00323438 0.00599551 0.00712495 
89 1 4.84307 1.82826 9.65049 0.0051967 0.00322075 -0.00413407 
90 1 7.38732 0.607448 10.4978 -0.00450116 0.00087178 -0.0113775 
91 1 4.88294 0.594838 10.5099 0.00380884 -0.00953038 -0.00815847 
92 1 6.08568 1.85556 8.78499 0.000326453 0.00274884 0.00276145 
93 1 8.64895 0.576945 11.4371 -0.00119725 -0.00543538 -0.00527264 
94 1 7.35239 1.82984 13.2176 0.00654089 -0.0011613 -0.00413772 
95 1 6.14323 0.578689 11.3909 0.00482477 -0.000958103 -0.000745588 
96 1 6.1006 1.84895 12.3383 -0.0043206 0.000736652 -0.00538833 
97 1 4.85496 3.05235 10.5396 0.000410338 -0.00398185 0.00768299 
98 1 6.12325 3.04334 11.4664 0.00110006 -0.00461883 0.00320898 
99 1 4.86218 4.3737 13.1596 -0.00318484 0.00368916 -0.000696087 
100 1 4.84719 1.78472 13.2144 -0.00103033 -0.00406402 -0.00220688 
101 1 7.37637 1.83511 9.62642 0.00243334 -0.00773133 -0.00389433 
102 1 7.3323 4.34041 9.6674 -0.00599032 -0.000149847 -0.00388976 
103 1 8.63062 1.85406 8.75049 -0.00285196 -0.00238507 -0.00224486 
104 1 7.39602 3.05146 10.5337 -0.000354226 -0.00614904 0.00617966 
105 1 8.55034 4.37441 8.7591 0.00623461 0.00761701 0.0043852 
106 1 8.68594 3.07123 11.4269 -0.00345832 0.00565467 0.00360797 
107 1 8.66755 1.82393 12.3169 0.00491461 -0.00101697 0.00282956 
108 1 8.65636 4.36695 12.329 1.05716e-06 0.00469761 -0.00573293 
109 1 4.84937 4.33236 9.7278 -0.00748575 -0.00385434 0.00218972 
110 1 6.13325 4.35506 8.80776 0.0011161 0.00291887 -0.00196006 
111 1 7.39676 4.30691 13.233 0.00158586 -0.00529571 0.00190251 
112 1 6.11833 4.34468 12.3064 -0.00331284 -0.000879756 0.00121502 
113 1 2.39052 0.536471 14.0563 0.00209493 -0.00557143 0.00377547 
115 1 3.62112 0.541315 14.9946 6.98667e-07 0.00293619 0.00480421 
116 1 2.37239 1.8623 16.7046 0.00216317 -0.00486938 -0.0111408 
117 1 1.07669 0.528132 14.9539 0.00133831 0.00225937 -0.00255784 
120 1 1.07775 1.80853 15.8172 0.00171473 4.7273e-05 -0.000608974 
125 1 1.10894 3.05234 14.9478 0.00586583 -0.00499459 0.00136012 
1854 1 12.4439 11.8841 6.0998 -0.00348311 -0.000536309 0.00214323 
130 1 2.38389 3.04769 14.0211 0.000839658 0.00551966 0.00288742 
131 1 3.63154 3.08602 14.9463 -0.00506611 -0.00290943 0.00231847 
132 1 3.61833 1.85159 15.8458 -0.00583303 0.00989531 -0.000922696 
134 1 3.63403 4.38815 15.8084 0.00424101 0.00109809 -0.000774584 
138 1 2.38103 4.3945 16.6915 -0.0086941 0.00572115 0.00160041 
139 1 1.11898 4.30082 15.8405 0.00263232 0.0051275 -0.000512864 
145 1 7.37053 0.571181 14.1342 -0.000144575 -0.00206402 -0.00963327 
146 1 4.85182 0.558019 14.07 -0.00354887 -0.0039137 -0.00593012 
147 1 8.55461 0.576001 15.0607 0.00142575 -0.00385326 -0.00236552 
148 1 6.11427 0.595107 15.0166 -0.0061016 0.00405728 -0.0069103 
150 1 6.09262 1.92478 15.8461 0.00475246 0.00723096 0.00180749 
151 1 4.79446 3.08056 14.0065 -0.00121784 5.68435e-06 0.00238042 
152 1 6.05574 3.08357 14.9323 -0.000648011 0.00366862 -0.000114185 
153 1 4.81379 4.36572 16.7777 -0.00275434 0.00204655 0.00733372 
154 1 4.85155 1.82485 16.7527 -0.00347125 -0.00331772 0.00691184 
156 1 7.35243 3.05035 14.1073 -0.00577289 0.00424145 -0.00384096 
157 1 8.68186 3.09209 15.0146 0.00184133 0.00457329 -0.00204265 
158 1 8.61601 1.84339 15.9099 -0.0132125 -0.00886933 -0.00231281 
159 1 8.64493 4.34545 15.8648 -0.000498292 0.00241985 0.00329518 
160 1 6.07625 4.3239 15.8467 0.00124718 -0.00514364 0.0056145 
163 2 7.35232 2.30933 16.6362 0.00550946 0.00121428 0.00185091 
164 2 7.36155 3.89675 16.6313 -0.00443428 -0.00382681 0.00387909 
169 1 9.86313 1.89561 2.5914 -0.00176037 -0.00384524 -0.0045493 
171 1 9.87191 0.634917 3.45481 0.000888848 -0.00830256 -0.00165685 
172 1 11.1376 1.88561 1.7 -0.000595741 0 0 
175 1 11.1344 0.648724 4.30613 -0.00905243 -0.00229049 -0.00247264 
177 1 9.84029 0.590253 6.97923 -0.0033176 -0.000739299 -0.00858182 
178 1 11.1371 1.90684 5.2031 0.000245668 -0.00172497 -0.00358472 
180 1 11.1271 0.636479 7.91359 0.000355633 0.00304862 -0.00285333 
181 1 9.86684 3.15 3.47831 -0.00893088 0.00546582 0.008088 
182 1 11.1333 3.16407 4.32412 -0.00349043 0.00499221 0.0012735 
183 1 9.87782 4.38747 6.12316 -0.00173317 0.00861808 -0.0056743 
184 1 9.86357 1.87455 6.13568 0.0109196 0.00196109 -0.00363621 
185 1 9.85816 3.12846 6.98165 0.001655 -0.00471859 0.000256861 
186 1 11.0944 3.10871 7.89872 -0.0060664 0.00868355 -0.0035745 
197 1 9.90178 4.33893 2.56626 0.0084184 -0.00283892 0.00098709 
198 1 11.1376 4.31402 1.70001 3.32658e-05 0 0 
200 1 11.1374 4.36844 5.21203 -0.00070722 -0.0107954 -0.00702435 
201 1 9.89208 1.8322 9.65788 0.00403676 0.00896662 -0.00477967 
203 1 9.86191 0.574982 10.5474 0.0121723 0.00586511 -0.00265057 
204 1 11.1536 1.8935 8.76837 -0.0085239 -0.000432008 0.00363888 
207 1 11.175 0.539494 11.4293 -0.00399886 -0.00262798 -6.2816e-05 
208 1 11.1663 1.79519 12.3079 0.00755213 0.00223911 -0.0108705 
209 1 9.90629 3.06829 10.5277 -0.00115655 0.00134094 -0.00512198 
210 1 11.1362 3.06247 11.3969 0.00277965 0.000676611 -0.00489409 
211 1 9.92313 4.34286 13.2042 0.00197603 0.000578506 0.0024466 
212 1 9.91453 1.84236 13.2917 0.00318524 0.000992251 0.00675887 
221 1 9.82714 4.3171 9.63704 -0.000987392 -0.0016982 0.00598283 
222 1 11.097 4.35982 8.78533 0.00275995 0.00568256 0.00432323 
224 1 11.165 4.29659 12.3159 0.00439226 -0.00477196 -0.00177907 
282 1 9.82641 0.565508 14.1224 -0.000154247 -0.00197868 -0.011014 
285 1 11.1276 0.585982 14.956 -0.00111162 0.00188413 -0.00364291 
288 1 11.1447 1.85923 15.8126 -0.00231389 0.00535998 0.00036688 
292 1 9.82975 3.10668 14.1221 -0.00426025 -0.00486491 -0.000331307 
293 1 11.1019 3.13123 15.0029 0.00257613 -0.00709089 -0.00649776 
294 1 9.84598 4.29288 16.7701 -0.00237957 0.00923119 0.00146066 
295 1 9.87128 1.7805 16.7595 -0.013953 0.00181911 0.0027188 
307 1 11.1515 4.38086 15.8561 0.00240851 0.00522846 -0.0059397 
842 1 2.26878 5.55156 3.49257 0.00693559 0.00762519 -0.00933716 
844 1 1.07983 6.91451 1.7 -0.000185463 0 0 
845 1 3.59577 5.61645 4.35453 -0.000541261 -0.00298994 0.00329138 
846 1 2.36063 6.8163 6.12099 -0.000421245 0.00064863 -0.00252549 
847 1 1.11559 5.59685 4.39921 -0.000250382 -2.5989e-05 0.0105938 
848 1 2.31732 5.58308 7.0103 0.00372417 0.00330412 0.00144723 
850 1 1.10231 6.8701 5.2169 -0.010253 0.00244483 0.00128044 
851 1 3.56838 5.59602 7.8788 0.00509834 0.00338032 -0.00362713 
852 1 1.07441 5.59347 7.89296 0.00393034 0.00106512 -0.00370978 
854 1 1.05005 8.13794 4.33043 -0.00010007 -0.00462971 0.000716489 
858 1 1.07988 8.1547 7.89613 0.00297894 -0.00525927 -0.000178057 
859 1 2.34519 6.87662 2.58961 0.00107619 -0.00937056 -0.00181946 
860 1 2.30291 9.36168 2.55701 0.00361814 -0.00439202 -0.00300926 
861 1 3.58933 6.91451 1.7 0.000126879 0 0 
862 1 2.32727 8.16025 3.47155 0.00557369 0.00418848 0.00316164 
863 1 3.58932 9.34291 1.70001 6.84108e-06 0 0 
864 1 3.60314 8.17624 4.33077 -8.13081e-05 0.00581396 -0.00733731 
865 1 3.59217 6.8694 5.24005 0.00685362 -0.004255 -0.00148443 
866 1 2.36876 8.15421 7.00016 -0.00325998 0.00211661 -0.000360306 
867 1 3.69766 9.40357 5.25743 -0.00167171 0.00696171 0.000290138 
868 1 3.59163 8.13756 7.86572 -0.00137919 -0.00429608 -0.00450316 
870 1 1.07981 9.34292 1.70001 -0.000398044 0 0 
871 1 2.33318 9.37692 6.09246 0.00428947 0.000823364 0.001788 
872 1 1.08194 9.40291 5.18437 0.00235091 0.00538715 -0.00198045 
874 1 2.31506 5.58766 10.5696 -0.00642854 0.00597114 -0.00515495 
876 1 1.08908 6.88938 8.7601 0.0025902 0.00164964 -0.000619199 
877 1 3.6165 5.58478 11.417 0.00312466 -0.00391444 -0.0105673 
878 1 2.38339 6.87509 13.2291 0.00203957 0.00184013 -0.00238984 
879 1 1.08364 5.57935 11.4337 -0.00216693 -0.00581902 0.00460274 
880 1 1.08771 6.84735 12.4004 0.00541566 0.00425231 0.00101747 
882 1 1.06386 8.05345 11.4692 -0.00423025 0.0025674 -0.00977094 
885 1 2.36391 6.8736 9.66039 -0.00386055 -0.00104193 -0.00310651 
886 1 2.28871 9.41151 9.62752 -0.00245657 -0.00148385 -0.00690676 
887 1 3.65819 6.92308 8.75799 -0.000771582 -0.00463517 0.00412135 
888 1 2.27366 8.12681 10.5393 -0.00588799 0.00127703 0.00198912 
889 1 3.56375 9.37031 8.77154 -0.00569805 -0.000462892 -0.00418535 
890 1 3.5709 8.18115 11.4389 0.00257231 -0.00408592 0.00696774 
891 1 3.61745 6.86365 12.3436 -0.00262568 -0.000280619 0.000293654 
892 1 3.60631 9.39608 12.294 0.00513457 0.0041182 0.00594602 
894 1 1.025 9.40612 8.73574 -0.000932446 0.00329116 -8.96999e-05 
895 1 2.34506 9.3956 13.1763 -0.00341688 -0.00842846 -0.00324836 
896 1 1.0814 9.42058 12.2945 0.00195054 0.00815322 0.000712898 
897 1 4.86465 6.89867 2.58037 -0.0086949 -0.0006936 0.00282868 
898 1 7.35866 5.54196 3.40778 0.00598849 -0.00778975 0.0042265 
899 1 4.7774 5.67075 3.46462 0.00549462 -0.00199206 0.00057796 
900 1 6.10873 6.91451 1.7 9.44162e-05 0 0 
901 1 8.66612 5.5974 4.37314 -0.00303738 -0.00904352 0.00255327 
902 1 7.33813 6.85679 6.09424 0.0089741 -7.50602e-05 -0.000183824 
903 1 6.13992 5.63082 4.32559 -0.0104433 0.00322054 -0.000977066 
904 1 7.33832 5.65998 6.98104 -0.000194368 -0.00195614 -0.0012631 
905 1 4.87032 5.60839 7.01034 0.000614722 -0.00342881 -0.00751725 
906 1 6.09 6.87815 5.2171 -0.000356085 -0.00231609 0.00310641 
907 1 8.59888 5.58984 7.87834 0.0111952 -0.00572752 0.00478139 
908 1 6.10788 5.62775 7.90949 0.00725669 0.000584565 -0.00718869 
909 1 4.85176 8.16826 3.4615 -0.00502919 0.00379319 -0.000312008 
910 1 6.10505 8.15168 4.32837 0.00174236 -0.00429422 0.00249235 
911 1 4.93666 9.4261 6.10031 -0.00290056 -0.00201276 0.00214484 
912 1 4.86671 6.81542 6.09855 -0.0101394 0.00448321 -0.00431897 
913 1 4.94471 8.10055 6.99826 -0.00680608 -0.00436075 0.000402595 
914 1 6.15258 8.18051 7.89303 0.00232432 0.000593198 -0.00356814 
915 1 7.40222 6.86174 2.53101 0.00265054 0.00514805 0.000139782 
916 1 7.40958 9.3661 2.53663 -0.00306658 0.00360327 -0.00184114 
917 1 8.61823 6.91451 1.7 0.0008479 0 0 
918 1 7.44206 8.10324 3.4849 -0.00753891 -0.00550823 -0.0020929 
919 1 8.61822 9.34291 1.70001 0.000543139 0 0 
920 1 8.66952 8.17129 4.36125 -0.00611362 -0.00228441 0.00482734 
921 1 8.63587 6.87888 5.22998 -0.00109424 -0.00608487 0.00708476 
922 1 7.37177 8.13122 7.00559 -0.00136421 0.00635921 0.00577961 
923 1 8.62506 9.44725 5.2738 -0.00752479 0.00392033 -0.0036152 
924 1 8.70027 8.11771 7.86431 0.00695717 -5.25567e-05 -0.00541978 
925 1 4.87295 9.36174 2.57019 -0.00107205 0.00179551 -0.00148415 
926 1 6.10871 9.34292 1.70001 0.000222936 0 0 
927 1 7.39315 9.38947 6.0908 0.00285085 -0.0055403 -0.00232945 
928 1 6.15078 9.39333 5.23051 0.0045016 -0.000183719 0.00171483 
929 1 4.88039 6.91756 9.6859 -0.00449266 -0.00341835 -0.00880369 
930 1 7.36805 5.59316 10.5534 0.0044084 0.00354606 -0.00375169 
931 1 4.8711 5.63062 10.5383 0.00232269 0.00921792 0.000295141 
932 1 6.13628 6.96758 8.77677 0.00238949 -0.000674167 -0.00361662 
933 1 8.63775 5.65337 11.4431 -0.00236978 -0.00302501 0.00598637 
934 1 7.41032 6.83328 13.2561 -0.00375596 0.00703222 -0.00460965 
935 1 6.11132 5.60822 11.4649 -4.26229e-05 0.00824636 -0.00293623 
936 1 6.16087 6.85752 12.308 -0.00456242 0.0023977 0.00106518 
937 1 4.83566 8.15938 10.5521 -0.00288624 0.00239477 -0.00545755 
938 1 6.12909 8.12317 11.3991 0.000940265 -0.00744783 0.000723401 
939 1 4.87595 9.40912 13.2038 0.00270659 0.00476741 -0.00577297 
940 1 4.89808 6.88077 13.2199 -0.00318311 0.000997894 0.00737537 
941 1 7.41268 6.85215 9.63836 -0.000214801 0.000168282 0.0015134 
942 1 7.37373 9.37601 9.6832 -0.00788194 -0.00151113 -0.000493132 
943 1 8.69151 6.83544 8.74692 0.00114437 0.00896649 -0.00855877 
944 1 7.40857 8.1273 10.5296 0.00671132 -0.00260787 0.00768355 
945 1 8.65938 9.32964 8.79957 -0.00278361 -0.000538592 0.00876894 
946 1 8.60776 8.13868 11.4455 -0.00835707 -0.00823559 0.0122231 
947 1 8.63203 6.89559 12.3004 -0.0048085 0.00627952 0.00519686 
948 1 8.63621 9.41229 12.3195 -0.000341559 -0.00212075 -0.00708634 
949 1 4.84099 9.41161 9.66004 0.000382443 0.00381079 -0.00205667 
950 1 6.14459 9.3917 8.79053 0.00212188 0.00289043 0.000693143 
951 1 7.42044 9.41161 13.1936 0.00166685 -0.000344224 -0.0018158 
952 1 6.16365 9.41991 12.2491 -0.0035196 0.000776999 -0.00908275 
953 1 2.36752 5.65113 14.1024 0.000500504 -0.00763711 -0.00119749 
955 1 3.64273 5.68248 14.9928 -0.00137966 0.00516937 0.00421439 
956 1 2.33462 6.9135 16.7322 0.00372182 -0.00176909 -0.00034772 
957 1 1.15182 5.60068 15.0272 -0.000604184 0.00116909 -0.00249505 
960 1 1.09081 6.83829 15.889 0.00209942 -0.00621393 0.000452061 
965 1 1.08983 8.11412 15.0148 0.00140325 0.00417863 -0.000991721 
970 1 2.34678 8.15054 14.0756 0.00322905 -0.00244786 -0.00441772 
971 1 3.65587 8.19615 14.9055 0.0107731 -0.0042462 0.00335033 
972 1 3.63675 6.95326 15.8586 -0.0025972 -0.00557699 -0.00131797 
974 1 3.63683 9.43465 15.8139 -0.00285719 -0.00197808 -0.00299648 
978 1 2.36444 9.41065 16.6954 0.00334033 -0.0102162 -0.00268171 
979 1 1.06361 9.41823 15.865 0.00677391 -0.000534561 0.00557775 
985 1 7.38166 5.57711 14.1564 0.000542155 -0.00367656 -0.000169151 
986 1 4.9139 5.64701 14.1007 0.00297357 0.00527645 0.00579709 
987 1 8.6007 5.57679 15.0265 -0.00270481 0.00385389 0.000246664 
988 1 6.16261 5.61208 15.032 -0.00487243 0.00386135 -0.00114179 
990 1 6.14716 6.98687 15.9301 -0.00227721 -0.00135301 -0.00212088 
991 1 4.90648 8.12888 14.0426 0.000619146 -0.00163308 -0.00379852 
992 1 6.08045 8.1957 14.9744 0.0016378 -0.00153939 -0.00608321 
993 1 4.8599 9.49166 16.8075 -6.64656e-05 -0.00634809 0.00230516 
994 1 4.82366 6.93194 16.809 0.00493887 0.00481804 0.000352979 
996 1 7.39878 8.13892 14.0869 0.00341587 -0.00307089 -0.00177792 
997 1 8.71153 8.18571 14.9397 0.00399701 0.00133451 -0.00103035 
998 1 8.67551 6.9135 15.8769 -0.00173594 0.00219393 -0.00503661 
999 1 8.70998 9.38966 15.9055 0.00142159 0.00391483 0.00447032 
1000 1 6.12028 9.46137 15.919 0.000280284 0.0085091 -0.00521309 
1003 2 7.45593 7.38032 16.6979 0.00156833 0.00411731 0.0017851 
1004 2 7.40561 9.04492 16.647 0.00195061 0.00927867 0.00556354 
1009 1 9.91799 6.85988 2.59754 -0.00344954 8.30414e-05 -0.00135339 
1011 1 9.90014 5.57661 3.44559 0.00270247 0.00260784 0.00784804 
1012 1 11.1376 6.91451 1.7 8.09364e-05 0 0 
1015 1 11.1717 5.5805 4.31124 -0.00187416 0.00129649 0.00524467 
1017 1 9.82854 5.64033 7.00132 0.0100539 0.000418452 -0.00222542 
1018 1 11.16 6.9009 5.17669 -0.00639189 0.00693099 0.000946346 
1020 1 11.1063 5.63562 7.86893 0.0043672 0.00859017 0.00114168 
1021 1 9.92326 8.13289 3.50053 -0.000734895 0.000859051 0.00510291 
1022 1 11.1638 8.15636 4.3207 0.000114736 0.00855471 0.0012072 
1023 1 9.90569 9.38922 6.09474 -0.00281901 0.00351681 0.000216765 
1024 1 9.86989 6.87368 6.13846 0.00725267 0.00193022 0.000773736 
1025 1 9.90912 8.14791 6.96391 0.00173011 0.0150086 0.00909278 
1026 1 11.1811 8.12211 7.86627 0.00433428 0.00632458 0.00443686 
1037 1 9.88466 9.39944 2.5585 3.63709e-05 -0.000122926 -0.00115315 
1038 1 11.1376 9.34292 1.70001 -0.000149268 0 0 
1040 1 11.1813 9.38934 5.22208 -0.00180003 -0.00067803 -0.00220862 
1041 1 9.92657 6.85328 9.66364 0.00653572 0.00659078 0.000456134 
1043 1 9.93271 5.58932 10.539 -0.00250041 0.00420747 0.00194737 
1044 1 11.1961 6.87891 8.76029 -0.00684628 0.00449416 -0.000279376 
1047 1 11.1919 5.60499 11.4776 -0.00782209 -0.000240375 -0.00405576 
1048 1 11.1305 6.84913 12.3307 -0.00342011 -0.0034904 -0.00289377 
1049 1 9.85291 8.07052 10.5474 -0.00546742 0.00274208 0.00040587 
1050 1 11.1404 8.12534 11.4531 -0.00770275 0.000236097 8.73113e-05 
1051 1 9.89308 9.39628 13.1661 -0.00147676 0.00962782 0.00323953 
1052 1 9.88515 6.92759 13.199 0.00155216 0.00332682 -0.0025756 
1061 1 9.92205 9.33242 9.63824 0.00166529 0.00776762 0.000928124 
1062 1 11.1347 9.33624 8.7345 0.00368369 -0.00338204 -0.0129785 
1064 1 11.1839 9.43553 12.2607 0.00203449 0.00199782 0.0030116 
1122 1 9.8711 5.61829 14.0696 -0.00120013 0.00140046 -0.00357208 
1125 1 11.1716 5.65962 14.9563 0.00176328 0.00600512 -0.00112694 
1128 1 11.1347 6.90842 15.866 -0.00715915 -0.00127246 0.00282704 
1132 1 9.97692 8.16105 14.0596 -0.00316629 -0.00616449 0.00114513 
1133 1 11.1708 8.14154 14.976 -0.00245756 0.00301768 -0.00121651 
1134 1 9.94348 9.36988 16.8084 -0.00210095 0.00315299 0.00781464 
1135 1 9.9277 6.88983 16.8165 -0.00435478 -0.00423224 0.000515191 
1147 1 11.2075 9.40788 15.8787 -0.0050173 0.00175464 0.00304405 
1682 1 2.35075 10.649 3.42344 -0.000496436 -0.0029128 0.00881582 
1684 1 1.07983 11.9434 1.7 -0.000517487 0 0 
1685 1 3.62985 10.6667 4.29446 0.00209408 -0.00185843 -0.00387849 
1686 1 2.25737 11.8792 6.12141 -0.00376713 0.00526431 0.000611346 
1687 1 1.07383 10.6549 4.33068 0.00138263 -0.00414254 0.00374477 
1688 1 2.25596 10.6226 7.0142 -0.00231095 0.00148396 -0.000986871 
1690 1 1.08332 11.9001 5.22489 -0.000891554 0.00674942 0.000342878 
1691 1 3.52001 10.6552 7.85792 0.00387174 -0.00617873 0.00135938 
1692 1 1.00847 10.6342 7.91252 -0.000171412 -0.00344996 0.00187812 
1699 1 2.32543 11.9982 2.54944 0.00671107 -0.00125225 0.0019065 
1701 1 3.58933 11.9434 1.7 -0.000519584 0 0 
1705 1 3.53648 11.8367 5.16813 0.00380233 0.000791613 -0.00460559 
1714 1 2.28957 10.6749 10.5215 0.00337611 0.000478543 -0.00479291 
1716 1 1.12826 11.9202 8.77777 0.00600849 0.00372366 -0.00197097 
1717 1 3.57387 10.626 11.3972 -0.00895334 0.00855322 -0.00474276 
1718 1 2.27175 11.915 13.2139 -0.0112214 0.00519258 -0.00621498 
1719 1 1.02901 10.6301 11.4159 -0.000812414 -0.00376197 0.0055343 
1720 1 1.03233 11.9368 12.2682 -0.00210962 0.00225291 0.00643826 
1725 1 2.32365 11.9231 9.70407 0.004229 -0.00426611 -6.04928e-05 
1727 1 3.53979 11.8845 8.83342 -0.00355396 -0.00207569 0.00596029 
1731 1 3.57764 11.8985 12.2919 -0.00209691 0.00563688 0.0141026 
1737 1 4.817 11.9459 2.52043 -0.0071138 0.00154466 0.00677646 
1738 1 7.38013 10.6089 3.44248 0.000309531 0.00013693 0.00702795 
1739 1 4.87517 10.7174 3.39704 -0.00802849 0.00360693 0.00291226 
1740 1 6.10873 11.9434 1.7 4.69203e-05 0 0 
1741 1 8.63893 10.6554 4.35161 0.00209442 0.00265271 0.00120446 
1742 1 7.34804 11.8684 6.12061 -0.00468131 -0.00215714 -0.00509877 
1743 1 6.1195 10.6907 4.34995 -0.00112621 -0.00688446 -0.0016295 
1744 1 7.354 10.6654 6.98339 -0.00307503 -0.000554302 0.00928711 
1745 1 4.83259 10.6735 7.03348 -0.00702294 -0.00598253 0.00679092 
1746 1 6.08693 11.9147 5.23676 -0.00262935 -0.0020563 0.00350417 
1747 1 8.61955 10.586 7.89372 0.00368887 -0.00512052 -0.00234314 
1748 1 6.10465 10.6845 7.90584 0.000432092 -0.00514434 -0.00307815 
1752 1 4.77672 11.942 6.10899 0.00134142 0.00775793 -9.54713e-06 
1755 1 7.37727 11.9557 2.57182 0.00235974 -0.00388992 0.004858 
1757 1 8.61823 11.9434 1.7 0.000110383 0 0 
1761 1 8.63578 11.8868 5.21203 0.00385955 0.0011259 -0.0059488 
1769 1 4.86758 11.8965 9.66477 0.0068617 -0.00539046 0.00234419 
1770 1 7.41129 10.6312 10.5311 -0.00163603 0.00775742 -0.00304721 
1771 1 4.87495 10.6626 10.5445 0.00105449 -0.00313071 0.00356169 
1772 1 6.11982 11.8933 8.78865 0.000145578 0.00739535 -0.00211871 
1773 1 8.66481 10.6397 11.3909 -0.00254261 -0.00582089 -0.000108679 
1774 1 7.38571 11.8923 13.2439 -0.00941634 -0.000433194 -0.00602167 
1775 1 6.16799 10.6441 11.4346 0.00423524 -0.00210314 0.00314519 
1776 1 6.1391 11.8854 12.3422 0.00906544 -0.00523283 -0.00544654 
1780 1 4.88352 11.9226 13.1912 -0.0037866 0.000225488 -0.000996076 
1781 1 7.38739 11.869 9.63636 0.000377765 -0.0023318 -0.010771 
1783 1 8.65046 11.8767 8.78569 -0.00442266 0.00102999 0.00158081 
1787 1 8.63428 11.8805 12.3578 -0.00380604 0.000495729 -0.00167164 
1793 1 2.30293 10.6458 14.0623 0.00243981 0.00265214 0.00378809 
1795 1 3.60872 10.6659 14.969 0.00192941 0.000396809 0.0110232 
1796 1 2.35315 11.9066 16.6231 -0.00272879 -0.000481404 0.00433243 
1797 1 1.01754 10.6831 14.9393 0.00189972 -0.00540032 -0.00195786 
1800 1 1.06345 11.9062 15.8243 0.00516936 -0.00254988 -0.000105724 
1812 1 3.68498 11.9527 15.8567 -0.000687545 -0.00220252 -0.00247436 
1825 1 7.43861 10.5923 14.1303 -0.00222363 0.00478994 -0.00228653 
1826 1 4.9013 10.6585 14.1412 0.00295687 0.00896295 -0.00152579 
1827 1 8.64725 10.6745 15.0564 -0.000426341 -0.00469718 -0.000759987 
1828 1 6.16668 10.7022 15.0244 -8.89545e-05 -0.00459061 -0.00251055 
1830 1 6.1451 11.984 15.9278 -0.00526129 0.00481635 -0.00574537 
1834 1 4.89588 11.9659 16.8345 -0.00552492 -0.00420887 0.00949493 
1838 1 8.64315 11.9619 15.9067 6.58998e-05 -0.00567526 0.00898025 
1849 1 9.92246 11.951 2.5103 0.00431414 0.00577492 0.00385396 
1851 1 9.89641 10.6521 3.42245 0.00471605 0.00112005 -0.00671107 
1852 1 11.1376 11.9434 1.7 0.000932041 0 0 
1855 1 11.1279 10.6869 4.28021 0.000817971 -0.0105159 -0.00682057 
1857 1 9.91605 10.6789 6.99826 -0.000996623 -0.00167742 0.00859694 
1858 1 11.1542 11.9134 5.22516 0.00218951 0.00599686 0.00261192 
1860 1 11.1678 10.637 7.92695 0.00645371 0.00541548 -0.00366516 
1864 1 9.8785 11.9459 6.09297 0.000577347 0.00296565 0.0010966 
1881 1 9.8911 11.921 9.66866 -0.0101067 -0.0006998 -0.00326441 
1883 1 9.9257 10.6587 10.5228 0.00172355 -0.00488212 0.0059739 
1884 1 11.1441 11.9328 8.77391 -0.00109553 0.00375537 -0.00302549 
1887 1 11.1947 10.7009 11.4008 0.00170724 -0.00724435 0.00621891 
1888 1 11.1832 11.9602 12.3178 0.00451264 -0.0102665 -0.000802004 
1892 1 9.89406 11.8616 13.1711 -0.00304531 -0.00457955 -0.00194995 
1962 1 9.8736 10.6031 14.1071 -0.00220162 0.00559178 0.00106713 
1965 1 11.1559 10.6723 14.9933 0.00182314 -0.00891008 0.00432094 
1968 1 11.1538 11.9298 15.8501 0.000911992 0.00360792 -0.00045156 
1975 1 9.8917 11.8726 16.7846 -0.0038591 -0.00528197 -0.00516733 
1843 2 7.41364 12.3241 16.7138 -9.09314e-06 0.00961014 -0.00635208 
223 1 12.3867 4.34785 13.2342 -0.00569609 -0.00044224 -0.00700374 
1042 1 12.4395 5.63277 10.4865 0.00192473 0.00264533 7.10953e-05 
281 1 12.4315 0.595623 14.0433 -0.00248529 0.00237758 0.00976254 
1010 1 12.4025 5.64187 3.44435 0.00274651 0.00125597 -0.00213207 
213 1 12.3944 1.84464 9.67926 -0.000787688 -0.0065668 0.00090217 
170 1 12.3581 0.67981 3.42268 -0.00205658 0.00247077 -0.000355963 
1124 1 12.4373 6.85561 16.6553 -0.00475833 0.0068988 0.00398933 
1039 1 12.4562 9.42346 6.14109 0.00274681 -0.00645652 -0.00751519 
1850 1 12.4145 10.7247 3.42722 -0.00352478 0.000345143 0.00348599 
1027 1 12.4048 6.89212 2.55329 -0.00521692 -0.00397886 -0.000625847 
1867 1 12.4471 11.9554 2.56303 -0.00310278 0.00460172 -0.000333328 
190 1 12.3971 3.18527 3.4828 -0.0112058 -0.00283894 0.00315266 
1063 1 12.4392 9.43869 13.142 1.853e-05 -0.001184 -0.0047788 
1856 1 12.4346 10.6743 7.03544 0.00265814 0.0031672 0.00327633 
202 1 12.4048 0.613671 10.5307 0.000294101 0.00607509 0.00750173 
1138 1 12.423 8.18137 14.0391 -0.00330971 -0.0095746 0.00429516 
1014 1 12.3869 6.8638 6.1136 0.00296485 -0.000668742 -7.38081e-05 
206 1 12.4199 1.86057 13.211 0.00313809 0.0039245 0.00438534 
1054 1 12.4036 9.39033 9.63702 0.00249535 0.00279245 0.00562967 
188 1 12.3854 4.39271 2.56297 0.00418592 -0.000995859 0.00482036 
187 1 12.3767 1.89172 2.52969 0.00015719 -0.00606909 -0.00398436 
214 1 12.4128 4.34586 9.629 0.00167456 0.000413836 0.00490864 
199 1 12.4363 4.38598 6.09763 0.000287894 0.00165209 -0.00451504 
1046 1 12.4038 6.92807 13.1914 -0.00271934 -0.000976641 0.000999594 
194 1 12.4396 3.16209 7.0529 -0.00295193 -0.00403794 0.000745506 
298 1 12.3127 3.14501 14.1564 -0.00260273 0.00440539 -0.00520146 
1053 1 12.4514 6.85786 9.68282 0.00221384 -0.00149937 0.00758343 
1030 1 12.3856 8.17287 3.44392 -0.0100626 -0.00418202 0.00126767 
216 1 12.3794 3.11824 10.4887 -0.00311542 0.00642373 -0.0063506 
1121 1 12.4309 5.66431 14.0804 -0.00104125 -0.000783582 -0.00025096 
1016 1 12.4035 5.62285 6.98433 0.00280361 -0.00316924 0.00352476 
1028 1 12.3585 9.43286 2.58155 0.00291964 0.00170057 0.00349055 
1882 1 12.4317 10.6773 10.4902 0.00897551 0.0111032 -0.00485238 
1961 1 12.4613 10.6561 14.0494 0.000758193 0.00617202 -0.00232486 
174 1 12.3909 1.9191 6.09905 0.0028543 -0.000402401 -0.00279516 
1034 1 12.4186 8.12688 6.96444 -0.00426495 -0.00156663 -0.00554229 
1056 1 12.4503 8.12914 10.5807 -9.45142e-05 -0.0022503 0.00439705 
1146 1 12.4842 9.43863 16.6531 0.00111692 -0.00273703 -0.00042356 
1964 1 12.3971 11.9023 16.7123 -0.000921878 -0.00444172 0.00995235 
284 1 12.401 1.7858 16.6594 -0.00373647 -0.00447441 0.00293748 
1893 1 12.4227 11.9357 9.64037 -0.00802795 0.0105178 0.00357185 
306 1 12.4442 4.34398 16.6931 -0.000740709 -0.00414484 0.00036558 
176 1 12.3544 0.647493 7.01467 0.00161269 -0.00137377 -0.00354548 
1886 1 12.4438 11.9655 13.1763 0.0113709 -0.00991643 -0.0049401 
3583 1 12.4381 24.453 13.1871 -0.00463395 -0.00432789 0.00219694 
1874 1 12.4192 13.1029 7.03335 -0.00721285 0.000361248 0.00483889 
2694 1 12.3612 16.8979 6.12974 0.00191956 0.00177072 0.0112365 
2804 1 12.4711 16.9229 16.6794 0.00391433 -0.000981868 -0.00281956 
2714 1 12.3566 18.1607 7.01565 -0.000764981 -0.000789322 0.0130297 
2719 1 12.4343 19.4441 6.13834 -0.00215393 0.000403735 -0.00323436 
2818 1 12.4338 18.2199 14.0667 -0.000528104 0.00575441 0.000696093 
3550 1 12.3652 23.251 3.44579 0.00544514 -0.00223352 -0.00226316 
2690 1 12.3357 15.6566 3.45418 -0.00374323 0.00499226 -0.00639841 
2733 1 12.4586 16.9805 9.70143 0.00617101 -0.0072993 0.0074462 
1894 1 12.3933 14.4308 9.63337 0.0058558 0.00450459 0.00472931 
2826 1 12.4301 19.4323 16.6764 0.00348685 -0.00489501 0.00490257 
3566 1 12.3749 21.9646 13.1943 0.00925003 -0.00021987 0.00572455 