ITEM: TIMESTEP
25000
ITEM: NUMBER OF ATOMS
20688
ITEM: BOX BOUNDS pp pp pp
0 50.289
0 50.289
0 243.135
ITEM: ATOMS id type xu yu zu vx vy vz 
2 1 1.81053 0.5954 3.45202 -0.00211955 8.47796e-06 -0.0024307 
4 1 0.579828 1.88561 1.7 -0.000169457 0 0 
5 1 3.07642 0.597096 4.36795 -0.00639146 0.00274737 -0.00131865 
6 1 1.83626 1.79048 6.13962 0.00468593 0.00211388 0.0042439 
7 1 0.607738 0.609639 4.421 0.000449314 0.011273 -0.00357931 
8 1 1.87844 0.583426 7.00662 0.00203671 -0.00155371 0.000411698 
10 1 0.546708 1.85482 5.28544 -0.00376577 0.0025006 0.00375949 
11 1 3.13278 0.568447 7.89954 0.00437794 0.00291787 0.00103947 
12 1 0.586673 0.591657 7.9144 0.00397031 0.00513659 -0.00309714 
14 1 0.568668 3.07217 4.35262 0.00375269 0.00627756 -0.00475672 
18 1 0.585096 3.10018 7.90252 -0.00706418 0.00374958 0.000176077 
19 1 1.83714 1.83233 2.55333 -0.00115741 -0.00273625 -0.00251079 
20 1 1.81744 4.31231 2.57647 -0.00319791 -0.000449615 0.000180311 
21 1 3.08933 1.88561 1.7 -9.62634e-06 0 0 
22 1 1.79388 3.0791 3.43601 0.00797665 0.00147301 -0.0018442 
23 1 3.08932 4.31401 1.70001 -0.0001286 0 0 
24 1 3.01092 3.10833 4.28602 -0.00401095 -0.0148527 -0.00605841 
25 1 3.05565 1.86025 5.18224 0.0023234 -0.00401241 -0.00179652 
26 1 1.83196 3.07006 6.98747 -0.00180356 -0.00438897 0.000613117 
27 1 3.07864 4.36505 5.19802 0.00492975 0.00200641 0.000942782 
28 1 3.12775 3.12063 7.90163 0.0022521 -7.08615e-05 0.00600991 
30 1 0.579811 4.31402 1.70001 9.7253e-05 0 0 
31 1 1.82154 4.32838 6.08386 -0.00359446 -0.00101496 0.00561663 
32 1 0.566376 4.30049 5.23804 -0.000819936 0.00365807 -0.00210519 
34 1 1.84935 0.609957 10.5668 0.00864995 -0.00727054 0.00518625 
36 1 0.574084 1.83622 8.77776 -0.00255148 -0.00505415 0.00116888 
37 1 3.091 0.570261 11.4763 0.00180869 -8.37987e-05 -0.00427696 
38 1 1.84078 1.83595 13.2318 0.00597839 -0.00657431 0.00814508 
39 1 0.586114 0.592824 11.4619 -0.00162466 -0.00543082 0.00429338 
40 1 0.574724 1.84471 12.3483 0.0016853 0.00317019 -8.51659e-05 
42 1 0.579738 3.11222 11.5181 -0.00950777 0.00133457 0.00129939 
45 1 1.85403 1.83984 9.69237 0.00153891 -0.000429956 -0.00236409 
46 1 1.85809 4.32179 9.69348 0.00864867 -0.00757664 0.000745061 
47 1 3.10333 1.81122 8.78217 0.00908276 -0.00967444 -0.00640978 
48 1 1.83409 3.09234 10.5694 0.00421496 -0.00681167 0.00423788 
49 1 3.14726 4.36985 8.79884 -0.00276151 -0.00966225 0.000738671 
50 1 3.04665 3.13231 11.4462 -0.00188391 -0.00178902 0.00182807 
51 1 3.06621 1.8366 12.3175 -0.00132148 0.00552429 -0.00387058 
52 1 3.16744 4.36894 12.3421 -0.00850104 -0.00102445 -0.00197278 
54 1 0.562308 4.30784 8.81912 0.00115779 -0.000673307 0.00183316 
55 1 1.90108 4.43046 13.189 -0.0013508 -0.00582314 0.00237855 
56 1 0.590269 4.35746 12.3789 0.00914059 0.000676849 -0.0011863 
57 1 4.34681 1.84989 2.54967 0.00198348 0.000244654 -0.00878324 
58 1 6.8782 0.631154 3.47182 -0.00296057 -0.00427127 -0.00345224 
59 1 4.32957 0.616553 3.41616 -0.00125029 0.00108729 0.00792793 
60 1 5.60873 1.88561 1.7 -8.49877e-05 0 0 
61 1 8.06172 0.587381 4.35214 -0.00368736 0.00207284 0.00499684 
62 1 6.83642 1.8023 6.13255 -0.00726418 -0.00241781 0.00151613 
63 1 5.58523 0.589939 4.34759 0.0006488 0.000780997 0.00303186 
64 1 6.8829 0.567613 6.99529 0.00795585 -0.00584689 0.00573398 
65 1 4.40096 0.605751 6.9965 0.00718419 0.00231892 0.00074962 
66 1 5.60833 1.86256 5.23734 0.0099433 0.00244135 -0.00473945 
67 1 8.16888 0.616832 7.87117 -0.00781509 -0.00273523 0.000190766 
68 1 5.64856 0.575626 7.87866 -0.00103828 -0.00864188 0.000882685 
69 1 4.37481 3.15867 3.42191 0.00557804 0.00570605 0.001816 
70 1 5.60293 3.10807 4.37476 0.00338862 0.00153895 0.00744249 
71 1 4.34992 4.33107 6.09907 0.000546271 -0.0112911 0.00566328 
72 1 4.38906 1.86909 6.13782 0.00925124 0.000306518 -0.00555252 
73 1 4.36303 3.15273 6.99914 0.00441071 -0.000107173 0.0104898 
74 1 5.58393 3.09312 7.90038 -0.00353851 0.00141201 -0.00706318 
75 1 6.84192 1.87973 2.5957 0.010189 -0.00210884 0.00330006 
76 1 6.82569 4.40493 2.61932 -0.00175841 -0.00366455 -0.00302577 
77 1 8.11823 1.88561 1.7 -0.000275757 0 0 
78 1 6.8348 3.12994 3.4963 0.00814018 0.00568665 0.00287319 
79 1 8.11822 4.31401 1.70001 -0.00054969 0 0 
80 1 8.08979 3.15545 4.32957 0.00175303 -0.00557106 -0.00178756 
81 1 8.12129 1.8617 5.20927 0.00156289 -0.0075515 -0.00257142 
82 1 6.83606 3.11029 7.00517 -0.00395587 -0.000388574 0.00183378 
83 1 8.08527 4.3482 5.22275 0.0017563 0.00363976 0.00935072 
84 1 8.16344 3.11287 7.85682 -0.00450132 0.00436991 -0.000157696 
85 1 4.3638 4.38286 2.55501 -0.00374091 0.002354 0.00235995 
86 1 5.60871 4.31402 1.70001 5.47441e-05 0 0 
87 1 6.87752 4.30712 6.08098 0.00305052 0.00299282 1.75995e-05 
88 1 5.62691 4.32952 5.21108 0.00327163 0.000143815 -0.00209887 
89 1 4.32498 1.82798 9.73799 -0.00690512 0.00402525 0.00267577 
90 1 6.87538 0.572856 10.5265 -0.00538823 0.00122925 -0.00130404 
91 1 4.35869 0.540273 10.5407 0.000876152 0.00513643 -0.00249001 
92 1 5.58021 1.83572 8.77817 -0.00436407 -0.00352388 -0.00207743 
93 1 8.13289 0.582797 11.3909 -0.0027622 0.00423166 -0.000723628 
94 1 6.86902 1.84873 13.1957 0.00127652 -0.00122502 0.00382991 
95 1 5.65609 0.543898 11.3962 0.0035341 0.00317896 0.00337265 
96 1 5.63459 1.80502 12.2879 0.000567753 -0.00251122 0.00363936 
97 1 4.32985 3.10182 10.586 -0.00743938 0.0044825 -0.00301813 
98 1 5.61192 3.13434 11.4688 0.00568921 -0.00448807 -0.00413964 
99 1 4.40567 4.32998 13.2061 0.008096 -0.00138325 0.00110538 
100 1 4.35242 1.81966 13.2004 -0.00603578 0.00282306 0.000414668 
101 1 6.87981 1.85242 9.61863 -0.00575734 -0.00803505 0.00627387 
102 1 6.89238 4.373 9.6546 -0.000456919 0.00501782 -0.00595552 
103 1 8.12833 1.87266 8.7284 -0.00415416 0.00437355 -0.0046321 
104 1 6.87798 3.13548 10.5245 0.00345903 -0.00279941 0.00336886 
105 1 8.15951 4.33213 8.75378 -0.00126896 0.00191957 0.00332744 
106 1 8.1127 3.15552 11.4813 -0.00860634 -0.00396069 -0.00209357 
107 1 8.10628 1.86684 12.3234 -0.0113897 -0.00199729 -0.00486818 
108 1 8.1644 4.42856 12.3329 0.00430584 0.00307051 -0.0057082 
109 1 4.33742 4.35905 9.66128 0.00877796 -0.0048029 0.00705506 
110 1 5.66132 4.35487 8.8115 0.00568079 -0.00182083 -0.0117576 
111 1 6.86975 4.3722 13.2443 -0.00540384 0.00561631 -0.000409076 
112 1 5.65 4.3562 12.34 0.00845581 -0.0077323 -0.00295186 
113 1 1.83249 0.585224 14.1216 -0.00104747 -0.00127971 -0.00621569 
115 1 3.12873 0.565904 15.0033 0.00198621 0.00255289 -0.0009993 
116 1 1.84705 1.87064 16.6715 0.00144979 0.00394306 -0.00175216 
117 1 0.54682 0.638578 14.9451 -0.00268685 -0.0067905 -0.00438565 
120 1 0.533912 1.87224 15.8807 -0.0045718 0.00546902 0.0011033 
125 1 0.567695 3.09196 14.9519 -0.00182079 -0.00549075 -0.00804968 
1854 1 11.8894 11.923 6.13276 -0.00916952 -0.00527945 -0.00331766 
130 1 1.83061 3.14906 14.0519 0.00481298 0.00180663 0.00286245 
131 1 3.14733 3.08944 14.9493 -0.000781467 0.00130835 0.00785211 
132 1 3.17318 1.84729 15.763 0.00790623 0.00479261 -0.00593998 
134 1 3.16072 4.33249 15.8165 0.00374092 -0.00403332 0.00236117 
138 1 1.9093 4.39941 16.6648 -0.00806585 0.00376394 -0.00363313 
139 1 0.588679 4.34499 15.8857 0.00476521 0.00254549 0.00485941 
145 1 6.89781 0.609236 14.0881 0.00415628 0.00533815 -0.00873525 
146 1 4.38888 0.535608 14.0841 0.00386724 0.00656351 -0.00241553 
147 1 8.09477 0.618459 15.0812 0.00241925 0.0068881 0.00365455 
148 1 5.65737 0.604776 14.9992 -0.0066303 -0.0067229 0.0037928 
150 1 5.68122 1.91788 15.8733 0.00251018 0.00677167 -0.00382383 
151 1 4.36592 3.07392 14.0237 0.00548498 0.00720363 0.00184678 
152 1 5.65692 3.13769 14.9182 -0.00299069 0.00830214 -0.00160187 
153 1 4.40482 4.31359 16.7993 -0.00148662 -0.00204497 -0.00421488 
154 1 4.33179 1.8713 16.7261 0.00390065 0.00254452 -0.00252821 
156 1 6.92755 3.09497 14.1117 -0.000920116 -0.0083818 0.0034117 
157 1 8.24407 3.15235 14.9808 -0.00122566 0.00296536 -0.00108869 
158 1 8.19895 1.90915 15.9044 -0.00726371 7.99279e-05 -0.000321292 
159 1 8.20234 4.35532 15.9399 0.00150111 -0.000771586 -0.00588936 
160 1 5.6485 4.30607 15.8566 -0.00206697 -0.00473784 0.00304263 
163 2 6.94807 2.28709 16.6638 -0.00544185 -0.000968668 -0.00234496 
164 2 6.88782 3.89201 16.6829 -0.00244851 1.1302e-05 0.00281677 
169 1 9.35335 1.90776 2.60254 0.00246805 -0.00221401 0.0029403 
171 1 9.32297 0.598135 3.479 -0.00738584 0.00437012 -0.00522533 
172 1 10.6376 1.88561 1.7 -0.000230425 0 0 
175 1 10.6058 0.584657 4.34501 0.00319093 0.00183475 0.000372079 
177 1 9.41941 0.600271 6.94763 -0.00367244 0.0051658 0.000395703 
178 1 10.6291 1.85605 5.24444 0.00784624 -0.00693471 -0.00120205 
180 1 10.6287 0.610923 7.85893 0.00560311 0.00455836 -0.00448603 
181 1 9.37242 3.12014 3.47262 -0.00572613 0.0058058 0.00393534 
182 1 10.6113 3.09075 4.41762 -0.000676645 0.00421015 -0.00327332 
183 1 9.34305 4.36088 6.07276 0.000528833 0.00198529 -0.00465187 
184 1 9.36471 1.82245 6.10962 -0.00523622 0.00586611 0.00490764 
185 1 9.36637 3.04973 6.93252 0.000681503 0.00178818 0.00849295 
186 1 10.6293 3.05631 7.80793 0.00347779 -0.00151755 0.000724931 
197 1 9.38315 4.35343 2.53702 -0.000990582 0.00206597 0.00231107 
198 1 10.6376 4.31402 1.70001 -2.94573e-05 0 0 
200 1 10.6239 4.36219 5.24216 -0.00348961 0.00378982 -0.00520821 
201 1 9.35837 1.87694 9.61376 0.0026949 0.00106005 0.00408937 
203 1 9.35142 0.561311 10.4915 0.0017955 -0.00405487 0.00489643 
204 1 10.6516 1.83379 8.76636 0.00600952 -0.00481032 0.000261321 
207 1 10.6226 0.635312 11.375 -0.000285605 0.00313473 -0.00336512 
208 1 10.6251 1.86177 12.2947 0.0014464 0.00599528 0.00524735 
209 1 9.35116 3.11206 10.5508 -0.00286792 -0.00296571 0.00994759 
210 1 10.6102 3.12217 11.3826 0.000516941 0.00156857 0.000878267 
211 1 9.40238 4.42235 13.1856 0.00442501 0.00429709 -0.000535902 
212 1 9.37555 1.88297 13.2238 0.000490808 -0.000888869 -0.00302467 
221 1 9.38347 4.35127 9.68885 -0.00921823 7.87196e-05 0.0018211 
222 1 10.6414 4.33976 8.7811 -0.000153235 -0.00308539 -0.00644431 
224 1 10.6461 4.36766 12.3076 -1.68774e-05 0.00508146 0.00665356 
282 1 9.36331 0.56787 14.0794 0.0052352 0.000580026 0.000985517 
285 1 10.6507 0.605756 14.932 -0.002031 0.010324 -0.00438903 
288 1 10.6523 1.81931 15.8087 0.0146656 0.000282715 -0.00312742 
292 1 9.36903 3.16775 14.056 -0.0059736 0.00493352 0.00295219 
293 1 10.6495 3.1033 14.9458 0.00533575 0.000168932 -0.00908651 
294 1 9.46913 4.37768 16.8281 -0.000374545 0.00498336 -0.00538879 
295 1 9.43102 1.84558 16.8023 -0.00163905 -0.0117105 0.00644548 
307 1 10.7029 4.33601 15.8303 0.00441835 0.00234059 0.00457213 
842 1 1.84247 5.61979 3.4603 0.000878813 0.00326914 0.00289221 
844 1 0.579828 6.91451 1.7 0.00011968 0 0 
845 1 3.12823 5.58105 4.35921 0.00319152 0.00279594 0.00664165 
846 1 1.91434 6.82792 6.16551 -0.00706428 -0.000302702 0.00806838 
847 1 0.603281 5.58015 4.40964 -0.00312708 0.00265038 0.00135185 
848 1 1.87254 5.5408 7.01631 -0.00342767 0.00603269 -0.00427648 
850 1 0.654323 6.85604 5.28631 0.00356434 -0.00296193 0.00336455 
851 1 3.1393 5.61323 7.92169 0.00267136 0.00712882 0.00477845 
852 1 0.554461 5.65111 7.9561 -0.00216624 -0.00732934 -0.00283432 
854 1 0.558956 8.08499 4.35418 -0.00354042 -3.45374e-05 -0.00760649 
858 1 0.581442 8.08311 7.83019 0.000695341 0.0108166 -0.000718117 
859 1 1.85001 6.84644 2.55338 0.00266274 -0.00354836 -0.00139989 
860 1 1.81216 9.40607 2.56627 0.00277636 0.00805877 -0.00495612 
861 1 3.08933 6.91451 1.7 -7.55326e-05 0 0 
862 1 1.80071 8.07218 3.46899 0.00265084 0.00334983 -0.00511764 
863 1 3.08932 9.34291 1.70001 -0.000180763 0 0 
864 1 3.07223 8.09606 4.35789 -0.00201208 0.00693857 0.0040812 
865 1 3.13078 6.84115 5.23421 -0.0101383 0.00600053 -0.00550205 
866 1 1.87193 8.13809 7.00163 0.00526816 0.0102933 -0.00162305 
867 1 3.07119 9.38073 5.21003 -0.000169968 0.00511918 -0.00618766 
868 1 3.0876 8.12383 7.94117 0.00292312 -0.00332601 -0.000459351 
870 1 0.579811 9.34292 1.70001 -4.02802e-05 0 0 
871 1 1.87715 9.40171 6.10444 0.000243245 0.00254811 0.000553708 
872 1 0.549446 9.37616 5.2655 0.00677819 0.00578203 0.00521768 
874 1 1.86712 5.59779 10.5916 -6.51621e-06 0.00316153 -0.00252563 
876 1 0.55004 6.88909 8.78908 -0.00905556 0.00842237 0.00197404 
877 1 3.14485 5.61689 11.4443 0.00751855 0.0010918 0.00811005 
878 1 1.82518 6.82078 13.2329 0.00962996 -0.00608062 -0.00394361 
879 1 0.556473 5.61742 11.4434 0.0091929 0.00420932 0.00588758 
880 1 0.566494 6.88755 12.2745 -0.00448834 0.000655558 -0.00635951 
882 1 0.564364 8.14454 11.3776 -0.00481597 -0.00230942 0.00558557 
885 1 1.79317 6.86417 9.71577 -0.00109904 0.000683963 -0.00127449 
886 1 1.82201 9.4068 9.66814 0.000506849 0.00107303 0.00380392 
887 1 3.08935 6.83409 8.79119 0.00192198 -0.00222157 0.00300886 
888 1 1.82144 8.12157 10.5646 -0.00198841 0.00587635 -0.00461354 
889 1 3.07092 9.41627 8.81845 -0.00242268 0.00410177 0.00558211 
890 1 3.03903 8.13611 11.4703 0.00317023 -0.00524465 0.00051975 
891 1 3.09415 6.82376 12.341 0.00371797 0.00282159 0.00289183 
892 1 3.10764 9.34636 12.3796 -0.00290258 -0.00368257 -0.00543414 
894 1 0.549133 9.36876 8.733 0.00763401 0.00626852 -0.00176122 
895 1 1.83297 9.36993 13.221 0.00500885 -0.00542823 0.00236205 
896 1 0.613751 9.35352 12.2725 0.00469692 0.00471611 -0.00797867 
897 1 4.30414 6.90376 2.58431 -5.46681e-05 -0.00777495 0.00109922 
898 1 6.87569 5.63531 3.4811 -0.00186602 -0.00147361 0.00304199 
899 1 4.36685 5.6194 3.46171 -0.000447716 -0.000660627 -0.00232267 
900 1 5.60873 6.91451 1.7 -0.000875162 0 0 
901 1 8.13206 5.6219 4.29602 -0.00741455 -0.00124033 -0.000632038 
902 1 6.84395 6.88397 6.15826 -0.00460318 -0.000566139 0.00195275 
903 1 5.66644 5.63025 4.39125 -0.00776169 -0.00555959 -0.00129455 
904 1 6.86191 5.56487 7.00197 0.000413876 0.00398392 -0.00660567 
905 1 4.34423 5.63662 6.9916 0.00337876 -0.00496778 0.00241243 
906 1 5.61757 6.89996 5.24571 0.00230668 -0.00128338 -0.00274447 
907 1 8.12903 5.61227 7.87784 -0.00490021 -0.00446514 0.00889132 
908 1 5.64698 5.58564 7.88908 0.00252963 -0.00303989 -0.000333332 
909 1 4.32354 8.09969 3.47543 0.00025835 0.000585769 0.00503374 
910 1 5.62016 8.1417 4.33514 -0.00150164 0.00851517 0.00313823 
911 1 4.32281 9.35962 6.07176 -0.000974722 0.00379942 0.00372996 
912 1 4.34073 6.91105 6.06924 -0.00104401 -0.00195922 -0.00313839 
913 1 4.29185 8.11107 6.96702 0.00987436 0.00395715 0.003585 
914 1 5.54919 8.18344 7.89484 -0.00454981 0.00256881 -0.00645978 
915 1 6.82972 6.9026 2.53848 -0.00258183 -0.0107884 -0.00549383 
916 1 6.84804 9.32345 2.59849 -0.00818462 0.00231547 -0.00483183 
917 1 8.11823 6.91451 1.7 -6.90573e-05 0 0 
918 1 6.82685 8.05647 3.4773 -0.0059828 0.000488613 0.000200704 
919 1 8.11822 9.34291 1.70001 -0.000275937 0 0 
920 1 8.07547 8.13163 4.34976 -0.00218995 0.00258107 -0.00448302 
921 1 8.06364 6.87262 5.24858 -0.00141289 -0.00686279 0.000344242 
922 1 6.80291 8.14218 7.04355 -0.008133 -0.00120966 0.000117475 
923 1 8.06504 9.39172 5.25944 0.00163866 -0.0069568 -0.0032461 
924 1 8.1492 8.10518 7.90798 0.000678932 3.02469e-05 0.00643 
925 1 4.33365 9.38908 2.58905 0.00274985 0.00233747 0.00730516 
926 1 5.60871 9.34292 1.70001 -0.000243284 0 0 
927 1 6.79574 9.42849 6.15103 0.000371141 -0.00462672 -0.000716752 
928 1 5.58288 9.37194 5.28251 0.00428127 -0.000660747 -0.00899072 
929 1 4.37336 6.85507 9.6326 0.00910936 -0.00118985 -0.00130919 
930 1 6.83242 5.61861 10.5713 0.000956415 -0.00563045 -1.81848e-05 
931 1 4.3796 5.62216 10.5404 0.00538796 -0.00523224 0.0148243 
932 1 5.61139 6.87542 8.74729 0.00216347 -0.00450218 -0.0100128 
933 1 8.12594 5.65223 11.4628 0.00836736 -0.00361626 -0.010891 
934 1 6.90957 6.82847 13.2083 -0.0129053 0.00744227 -0.00105858 
935 1 5.64417 5.58767 11.4446 0.00102148 0.00700711 -0.0158674 
936 1 5.66928 6.85199 12.3284 0.00508357 -7.33392e-05 -0.00395397 
937 1 4.32422 8.10975 10.5752 0.00668549 0.00424 -0.00123447 
938 1 5.65066 8.12561 11.4202 -0.00274676 -0.0038092 0.00230431 
939 1 4.3627 9.31825 13.218 0.00619086 -0.00200944 -0.0106013 
940 1 4.36016 6.8818 13.2247 0.00251945 0.00200167 0.00103919 
941 1 6.85121 6.8606 9.68375 -0.00420558 -0.00753762 2.46398e-05 
942 1 6.86015 9.34056 9.68653 0.00723829 0.00149586 0.00130268 
943 1 8.15385 6.86164 8.80687 0.00402357 -0.00585603 0.00497723 
944 1 6.91875 8.1138 10.6 -0.00304837 -0.0071595 -0.00879513 
945 1 8.14105 9.35972 8.80018 -0.00484591 -0.00387183 -0.00430053 
946 1 8.16187 8.11842 11.4651 0.00929146 0.00464873 0.00585433 
947 1 8.15795 6.91152 12.3152 0.00502736 -0.0022543 -0.00266658 
948 1 8.15441 9.37956 12.3159 0.00451592 0.00208237 0.0106676 
949 1 4.30946 9.35845 9.71154 -0.00570063 0.000241374 -0.000184573 
950 1 5.58668 9.36333 8.8067 0.00552906 0.000997415 -0.00323766 
951 1 6.85565 9.3519 13.2261 0.00391848 0.00128075 -0.000183056 
952 1 5.6082 9.38343 12.3458 0.00409532 0.00878321 0.00254145 
953 1 1.85207 5.61175 14.0773 -0.00418075 0.00225863 -0.00165274 
955 1 3.14713 5.60409 14.9865 0.00617526 0.000797735 0.00507744 
956 1 1.81778 6.89786 16.6657 -0.0017249 -0.00205823 0.000659499 
957 1 0.551639 5.62887 14.9828 -0.00114974 0.00189517 -0.00110641 
960 1 0.536485 6.90306 15.8511 -0.00482378 -0.00108712 -0.00423839 
965 1 0.550354 8.10834 14.9569 -0.000301284 -0.00795345 -0.00289002 
970 1 1.82671 8.05875 14.0953 -0.00493795 -0.000925956 0.00510009 
971 1 3.07909 8.09323 14.9857 -0.000194419 -0.000636995 -0.00473553 
972 1 3.11235 6.89228 15.855 -0.00345707 0.00205573 -0.00771393 
974 1 3.02906 9.33878 15.8764 -0.000417179 0.000863762 -0.00803532 
978 1 1.78738 9.38534 16.7412 -0.00044313 0.00178273 -0.00561475 
979 1 0.512576 9.34593 15.8636 -0.00368586 0.00555406 -0.00152436 
985 1 6.88462 5.6153 14.1796 0.00173319 0.00587822 0.00581061 
986 1 4.37957 5.62526 14.1175 0.0100413 0.002112 0.0054404 
987 1 8.15599 5.68049 15.0457 -0.00861628 -0.000878909 0.00911796 
988 1 5.62592 5.66432 15.0779 -0.0004167 0.00841137 0.000478001 
990 1 5.58434 6.88176 15.9522 0.00529737 -0.00196486 0.000427763 
991 1 4.35805 8.08249 14.1437 0.00216099 0.00107538 0.0107965 
992 1 5.62967 8.08124 14.9644 -0.000613742 0.00467409 0.000299498 
993 1 4.33707 9.32269 16.803 -0.00222629 0.00219418 -9.25727e-05 
994 1 4.30628 6.89415 16.8003 -0.00854416 -0.0139022 0.00116227 
996 1 6.91165 8.10765 14.0847 -0.00904535 -0.00210203 0.00279554 
997 1 8.19211 8.13531 14.9936 -0.000236044 0.0063558 -0.00558876 
998 1 8.15836 6.95987 15.8863 -0.000509704 0.00780625 -0.00298482 
999 1 8.10901 9.35241 15.9086 -0.00754542 -0.000719545 -0.00348763 
1000 1 5.55294 9.32319 15.835 0.00308726 -0.00140228 -0.00596957 
1003 2 6.8631 7.30934 16.6883 0.00335121 -0.000781181 -0.00593815 
1004 2 6.79972 8.91624 16.6237 -0.00793562 -0.000903616 -0.00477092 
1009 1 9.37527 6.85601 2.57295 0.0057117 -0.00243793 0.000392976 
1011 1 9.40292 5.61255 3.42864 -0.00109749 0.00280886 0.00561327 
1012 1 10.6376 6.91451 1.7 -0.000338113 0 0 
1015 1 10.6431 5.60635 4.3561 -0.00350615 0.00113541 -0.00572964 
1017 1 9.36743 5.58092 6.99607 -0.00329333 -0.00218578 -0.00171861 
1018 1 10.6198 6.8285 5.22028 0.00582794 -0.00353796 0.00320194 
1020 1 10.6556 5.60931 7.88045 0.00456878 0.00489055 -0.00183724 
1021 1 9.38903 8.11775 3.4485 -0.000444906 0.00415983 0.00206581 
1022 1 10.6604 8.12564 4.33243 0.00661962 -0.00429925 0.00120719 
1023 1 9.31208 9.39777 6.10269 -0.00560865 0.000157997 0.00145722 
1024 1 9.35912 6.82844 6.13401 -0.00110851 0.00166749 -0.00724029 
1025 1 9.40335 8.11788 6.96165 0.00473312 -0.00385372 0.00141536 
1026 1 10.6815 8.19365 7.90809 0.00177788 -0.00284553 -0.00306239 
1037 1 9.36007 9.37763 2.58554 -0.00146563 -0.00458838 -0.00612068 
1038 1 10.6376 9.34292 1.70001 -0.00059233 0 0 
1040 1 10.6047 9.37471 5.2162 -8.83816e-05 -0.0021773 -0.000981313 
1041 1 9.43996 6.88536 9.62659 -0.00441443 0.00224872 -0.00518623 
1043 1 9.38001 5.62775 10.5233 0.00240433 0.00445228 -0.00325841 
1044 1 10.6309 6.87607 8.73131 0.0023863 0.00604951 0.00244172 
1047 1 10.6325 5.62657 11.4442 -0.00183305 -0.00942102 0.0101357 
1048 1 10.6357 6.89905 12.3338 -0.00170283 -0.00319391 -0.00322941 
1049 1 9.4276 8.12448 10.5531 -0.000297012 -0.0062963 0.00372356 
1050 1 10.7118 8.17623 11.4707 -0.00165277 0.00557973 -0.000485148 
1051 1 9.36848 9.37142 13.2368 0.00222352 -4.25696e-05 -0.00229085 
1052 1 9.41417 6.92935 13.233 -0.00160107 0.00523354 0.00357509 
1061 1 9.38324 9.39876 9.66088 0.0050094 -0.00185305 0.00109018 
1062 1 10.6415 9.41227 8.77752 0.00732312 0.001244 0.00933883 
1064 1 10.6643 9.44383 12.3773 0.00897619 -0.00201127 0.00238274 
1122 1 9.42192 5.66525 14.103 -0.00451404 -0.000478809 -0.00130972 
1125 1 10.6743 5.61871 14.9648 -0.00137193 -0.00470862 0.00380014 
1128 1 10.6222 6.85402 15.8716 -5.75877e-06 0.0013247 0.000126379 
1132 1 9.38867 8.10468 14.0976 -0.00165689 -0.000766034 -0.00230119 
1133 1 10.6357 8.0857 14.9676 0.00245877 -0.00558124 -0.001802 
1134 1 9.35679 9.34758 16.8405 0.00335975 -0.00332056 0.00352701 
1135 1 9.3743 6.82685 16.8297 -0.00278062 0.000363783 0.00196263 
1147 1 10.5857 9.34542 15.8801 -0.0049043 -0.0103139 -0.00330852 
1682 1 1.80054 10.6165 3.43229 0.00428549 -0.00592068 -0.00259376 
1684 1 0.579828 11.9434 1.7 0.000166054 0 0 
1685 1 3.06964 10.6437 4.32722 -0.00138855 -0.0100009 0.00049212 
1686 1 1.8563 11.9129 6.09983 -0.00219907 0.000876871 -0.00761467 
1687 1 0.543653 10.6226 4.34522 -0.00134831 -0.00311654 -0.000852194 
1688 1 1.85951 10.6415 7.01101 0.00230772 0.00300432 0.00201114 
1690 1 0.604236 11.8873 5.20963 -0.00615157 0.0101225 -0.00286729 
1691 1 3.1203 10.5967 7.91308 -0.0015692 -0.00463084 -0.00332278 
1692 1 0.602773 10.653 7.82016 0.00446779 -0.00692474 -0.00829827 
1699 1 1.8224 11.8649 2.5883 0.00536217 -0.0089117 0.00374817 
1701 1 3.08933 11.9434 1.7 -0.000145376 0 0 
1705 1 3.09182 11.8915 5.19018 0.000266097 -0.00442501 -0.000352295 
1714 1 1.83941 10.639 10.5884 -0.00151008 0.00164103 -0.00455016 
1716 1 0.595158 11.8996 8.7329 -0.00474686 0.00332765 0.000981974 
1717 1 3.08343 10.6257 11.4716 -0.00376306 0.00194519 0.0020855 
1718 1 1.82585 11.9134 13.1995 0.00302614 0.00158231 0.00235689 
1719 1 0.589257 10.5782 11.3988 -0.000212256 0.000756117 0.00276276 
1720 1 0.566145 11.8675 12.2774 0.00806095 -0.00312057 0.00193269 
1725 1 1.83998 11.8947 9.64447 -0.00179864 -0.00373957 0.00595293 
1727 1 3.08488 11.8738 8.75244 0.00321879 0.000340036 -0.00013086 
1731 1 3.07149 11.9075 12.3261 0.00605878 0.00174032 -0.000393527 
1737 1 4.36391 11.8991 2.56481 1.45944e-05 0.0119699 -0.00547987 
1738 1 6.8043 10.6137 3.46866 -0.00528182 -0.00819597 -0.00225818 
1739 1 4.37706 10.6546 3.47965 -0.00226968 0.0058041 0.00575334 
1740 1 5.60873 11.9434 1.7 0.000173825 0 0 
1741 1 8.09334 10.6476 4.33188 -0.00503237 0.00259392 -0.000517142 
1742 1 6.87989 11.911 6.10397 -0.00838946 0.0027663 0.000344237 
1743 1 5.57429 10.59 4.38832 -0.00128415 0.00303838 -0.00560426 
1744 1 6.83796 10.6269 6.98005 -0.00205675 0.00094304 -0.00293828 
1745 1 4.38791 10.6122 7.01786 -0.00159641 0.0113752 -0.00597379 
1746 1 5.57775 11.9113 5.30306 -0.00328531 -0.000629195 0.000350662 
1747 1 8.1243 10.6466 7.87308 0.00587666 0.00338075 -0.00428078 
1748 1 5.63442 10.5911 7.93724 -0.00280174 -0.00912437 0.000144813 
1752 1 4.35812 11.9216 6.15289 -0.0044126 -0.00835436 -0.00319119 
1755 1 6.86815 11.9148 2.59101 0.00230141 -0.000902509 0.00626306 
1757 1 8.11823 11.9434 1.7 0.000323985 0 0 
1761 1 8.12391 11.8834 5.22729 -0.00160797 0.00606143 0.00579804 
1769 1 4.33784 11.93 9.69839 0.00480468 -0.00236242 -0.00578705 
1770 1 6.85965 10.6295 10.5472 2.03641e-05 0.000275341 0.00261627 
1771 1 4.31381 10.6353 10.605 -0.00969987 -0.00424231 0.0116213 
1772 1 5.61415 11.9132 8.75783 -0.00559244 -0.000996941 -0.00732471 
1773 1 8.10684 10.633 11.4201 0.00618842 0.00324884 0.00349875 
1774 1 6.86883 11.8785 13.2204 -0.00369631 0.00101526 0.0027635 
1775 1 5.61005 10.6488 11.419 -0.00379915 -0.00565181 0.00248074 
1776 1 5.55073 11.9184 12.2767 0.00106746 0.00368449 0.00556288 
1780 1 4.36012 11.889 13.2081 -0.00115165 0.00298996 -0.00468931 
1781 1 6.89793 11.8717 9.67071 -0.000772556 0.00201372 -0.000369019 
1783 1 8.12472 11.8985 8.80874 -0.00290477 0.00291858 -0.00119167 
1787 1 8.08683 11.8803 12.3083 0.00137856 0.00838371 -0.0044323 
1793 1 1.79336 10.6177 14.1242 0.00171757 -0.00229978 0.00341196 
1795 1 3.0901 10.5595 14.9575 -0.00326008 0.00715366 0.00235041 
1796 1 1.82649 11.8588 16.6738 0.000775672 -0.00714486 -0.00495441 
1797 1 0.511855 10.6111 14.942 -0.000533896 0.00299649 0.00199871 
1800 1 0.536988 11.8725 15.8392 -0.00233405 0.00879946 -0.00290811 
1812 1 3.12251 11.8359 15.8601 -0.0077629 -0.00416997 -0.00657517 
1825 1 6.85383 10.6013 14.1307 0.00619059 -0.00311921 0.000457841 
1826 1 4.34815 10.5664 14.0361 -0.00279033 0.00154055 0.00583541 
1827 1 8.12589 10.6227 15.0687 -0.00251832 0.0102455 -0.00559918 
1828 1 5.57736 10.6138 14.9946 -0.00461745 0.000114135 -0.00461357 
1830 1 5.60056 11.9143 15.9015 0.00683035 -0.0029198 0.0093027 
1834 1 4.32853 11.8698 16.78 -0.000920728 -0.00458825 -0.00410384 
1838 1 8.12462 11.9145 15.9671 0.00265815 0.000962484 -0.000980958 
1849 1 9.43722 11.9154 2.57722 -0.00254481 0.00210449 -0.00308964 
1851 1 9.38472 10.6625 3.44615 0.000815264 0.0027695 0.00107683 
1852 1 10.6376 11.9434 1.7 0.000151593 0 0 
1855 1 10.6437 10.7065 4.35021 0.0103292 0.00519852 0.00129073 
1857 1 9.43658 10.6619 6.98883 -0.000956659 -0.00338036 -0.00824303 
1858 1 10.6035 11.8818 5.24389 0.00253674 -0.0125876 -0.00169001 
1860 1 10.6488 10.6255 7.87484 0.00260036 -0.00537935 0.00307849 
1864 1 9.33493 11.8516 6.11173 -0.00276423 -0.00602509 0.00414356 
1881 1 9.41801 11.9493 9.67742 0.00363863 0.00217488 -0.00373943 
1883 1 9.38136 10.6463 10.535 0.00186836 -0.00543225 0.00261758 
1884 1 10.6788 11.9071 8.7881 -0.00839177 0.00280736 -0.00147101 
1887 1 10.6325 10.6554 11.4194 -0.00328156 0.000837381 -0.00108307 
1888 1 10.5897 11.9389 12.304 -0.00348213 0.00180811 0.00395203 
1892 1 9.34968 11.8825 13.2333 -0.003351 0.00518272 0.00123817 
1962 1 9.34672 10.5976 14.1345 0.00716129 -0.00648247 0.00295931 
1965 1 10.6382 10.6046 15.025 0.00590902 0.00536699 -0.000875298 
1968 1 10.6305 11.9122 15.9021 0.00146797 0.00208921 -0.00382314 
1975 1 9.39386 11.8877 16.9186 -0.0026063 -0.010632 -0.00718969 
1843 2 6.87999 12.3347 16.7354 -0.00698935 0.000627112 -0.00136894 
223 1 11.9299 4.33759 13.1833 -0.0102657 -0.00614055 -0.00380369 
1042 1 11.8631 5.60217 10.542 0.00558007 -0.00122043 -0.00405539 
281 1 11.9227 0.554038 14.0008 -0.0119428 0.0069569 0.00300083 
1010 1 11.8932 5.63766 3.46064 -0.00472895 -0.00247228 0.00295778 
213 1 11.892 1.88203 9.67427 0.00228537 0.00197101 0.00450023 
170 1 11.8941 0.594219 3.43538 -0.00465218 -0.00662327 -0.00695742 
1124 1 11.8842 6.83334 16.6417 -0.00197646 -0.00216937 -0.00145487 
1039 1 11.8533 9.41392 6.08305 0.00714943 0.00545613 0.00878299 
1850 1 11.8868 10.6687 3.41199 -0.00420759 0.00795503 0.00132848 
1027 1 11.8753 6.89246 2.55287 0.0014924 -0.00839387 -0.00630436 
1867 1 11.8852 11.9153 2.54383 -0.0047066 0.000542958 0.00166997 
190 1 11.9056 3.10323 3.45941 -0.00318145 -0.00399873 -0.00027087 
1063 1 11.9256 9.40303 13.2517 -0.0108298 -0.00327896 -0.000715104 
1856 1 11.8616 10.6848 7.04096 -0.0103655 0.00159004 -0.00868243 
202 1 11.8635 0.639055 10.541 0.00829021 -0.00567393 -0.00523954 
1138 1 11.8859 8.10931 14.1158 -0.00204499 0.00312281 0.00508925 
1014 1 11.9248 6.88397 6.14264 0.00769292 -0.00237072 -0.00387191 
206 1 11.9219 1.81862 13.1606 -0.00539881 -0.00381198 0.000149817 
1054 1 11.8487 9.45037 9.69696 -0.00188603 -0.00303727 0.0106647 
188 1 11.8621 4.4009 2.583 -0.00119144 -0.00334475 0.0057022 
187 1 11.9086 1.84866 2.57387 0.00178671 -0.00200253 0.00513131 
214 1 11.8794 4.33914 9.72646 0.000199429 -0.00069916 0.00151687 
199 1 11.8979 4.38269 6.16371 -0.000603963 -0.000719431 -0.00151805 
1046 1 11.9043 6.85653 13.1761 -0.00515693 0.00110128 -0.00788125 
194 1 11.9229 3.13458 6.99576 -0.00185742 -0.00931203 0.00531372 
298 1 11.8949 3.03163 14.0604 -0.00314017 0.00595239 0.00144446 
1053 1 11.8864 6.84378 9.64042 0.00212405 -0.00316469 0.00530443 
1030 1 11.9266 8.13654 3.41807 0.00303634 0.00170074 0.00227084 
216 1 11.8952 3.09283 10.5616 0.00280225 -0.00748665 0.000533848 
1121 1 11.973 5.59222 14.0658 0.00236599 0.00150741 -0.00259101 
1016 1 11.9476 5.62884 7.07138 -0.00199073 -0.000710172 0.00236745 
1028 1 11.8625 9.39219 2.54911 0.00381983 -0.00844637 -0.0129017 
1882 1 11.9045 10.7085 10.5976 -0.000641401 -0.00161519 0.00359608 
1961 1 11.9562 10.6807 14.1278 0.00760738 -0.000759324 -9.70054e-05 
174 1 11.9637 1.90726 6.12438 -0.00611493 -0.00386514 -0.000441272 
1034 1 11.8835 8.13013 6.96705 0.000307907 -0.00263112 -0.000938911 
1056 1 11.9258 8.14077 10.5282 0.00243902 -0.000584456 0.00395699 
1146 1 11.8534 9.34818 16.6732 0.00484102 0.00762475 0.00485656 
1964 1 11.8786 11.9207 16.7541 0.000799843 0.00653227 0.00159751 
284 1 11.9013 1.79795 16.5878 -0.00819774 -0.00377659 0.00274194 
1893 1 11.9308 11.944 9.7244 0.00384578 -0.00316894 -0.00198031 
306 1 11.9818 4.33234 16.6562 0.00201843 0.00295982 -0.00448478 
176 1 11.9071 0.632136 6.99117 0.00618227 -0.00567339 0.00656263 
1886 1 11.9388 11.9063 13.2412 -0.00224334 0.00215356 -0.00254842 
3583 1 11.891 24.4761 13.2342 0.00499217 -0.00137309 -0.00191733 
1874 1 11.9381 13.1902 7.02838 0.000121754 -0.00268189 0.000684151 
2694 1 11.9089 16.9549 6.12179 -0.00176713 0.00036145 0.00416708 
2804 1 11.917 16.9704 16.7284 -0.00474176 0.00252975 -0.00516366 
2714 1 11.9687 18.2525 7.016 0.00101074 0.00096511 0.00489559 
2719 1 11.9705 19.4834 6.14585 0.00279377 2.19984e-05 0.00115205 
2818 1 11.9004 18.1794 14.1039 -0.00736707 -0.00436645 0.00645029 
3550 1 11.872 23.1696 3.41856 -0.00305543 6.30587e-05 0.00248633 
2690 1 11.9277 15.6406 3.50544 0.00505021 -0.00825986 0.0108393 
2733 1 11.9568 16.9433 9.65059 -0.0104991 -0.00289073 -0.00478521 
1894 1 11.9396 14.3477 9.66416 -0.00203358 -0.000116672 -0.00684881 
2826 1 11.9377 19.4488 16.6658 -0.00107115 -7.82809e-06 -0.00241947 