ITEM: TIMESTEP
30000
ITEM: NUMBER OF ATOMS
20688
ITEM: BOX BOUNDS pp pp pp
0 50.289
0 50.289
0 243.135
ITEM: ATOMS id type xu yu zu vx vy vz 
2 1 1.60245 0.550798 3.46049 0.0119011 -0.00483407 -0.000626108 
4 1 0.329828 1.88561 1.7 0.000147449 0 0 
5 1 2.84763 0.61193 4.32021 0.0027567 0.00359789 0.00564775 
6 1 1.58623 1.8514 6.08091 -0.00223557 -0.00487667 -0.00315157 
7 1 0.298707 0.591426 4.34133 -0.00303525 -0.00103983 -0.00207155 
8 1 1.6321 0.607833 6.99633 -0.00684777 -0.00342559 0.00248283 
10 1 0.355187 1.81658 5.23066 0.00206847 0.00912063 -0.00125512 
11 1 2.88435 0.639568 7.86915 -0.000104743 0.00210375 0.0066808 
12 1 0.382607 0.577018 7.89171 -0.00362041 -0.00473318 0.00409053 
14 1 0.356822 3.04983 4.35747 -0.00243471 -0.00936019 0.00495186 
18 1 0.359806 3.11534 7.8524 0.00962315 0.00641171 0.00184812 
19 1 1.60212 1.89231 2.58373 0.00428753 -0.00478843 -0.00760993 
20 1 1.57228 4.36329 2.58152 0.00165576 0.00418954 -5.64544e-05 
21 1 2.83933 1.88561 1.7 0.000285571 0 0 
22 1 1.57029 3.08535 3.48412 0.00411953 -0.00504613 0.00215647 
23 1 2.83932 4.31401 1.70001 -0.000175279 0 0 
24 1 2.83399 3.09323 4.34528 0.00296372 0.00698302 0.00316578 
25 1 2.88254 1.8611 5.21619 -0.00304966 -0.000257839 -0.00702098 
26 1 1.59722 3.09039 6.98346 -0.00406022 0.00293378 0.00326658 
27 1 2.90833 4.36934 5.22473 -0.00165753 -0.000508156 0.0016449 
28 1 2.8394 3.15282 7.83928 0.00440504 -0.0102305 0.00319801 
30 1 0.329811 4.31402 1.70001 -0.000393947 0 0 
31 1 1.58854 4.34592 6.08513 0.000744137 -0.0109786 0.00141392 
32 1 0.304427 4.32995 5.24674 -0.00307527 -0.00545003 -8.30432e-05 
34 1 1.59565 0.605068 10.5176 0.00761296 -0.00933197 -0.00174566 
36 1 0.300318 1.86405 8.74093 -0.00519082 0.00470101 -0.00208733 
37 1 2.83256 0.60296 11.4144 -0.00479082 0.00344598 -0.00519946 
38 1 1.59847 1.86549 13.1121 -0.00231189 -0.00651035 0.00762482 
39 1 0.350686 0.598796 11.4064 -0.0048943 -0.00107365 -0.00100463 
40 1 0.335017 1.84212 12.3007 -0.00459882 -0.00706353 -0.00169964 
42 1 0.334237 3.10452 11.4523 -0.00190174 0.00205042 -0.000700937 
45 1 1.61093 1.88524 9.62814 0.000394454 -0.00595016 0.00296607 
46 1 1.60116 4.36973 9.62607 0.00511896 -0.00296612 -0.000796267 
47 1 2.86729 1.90411 8.72517 -0.000434243 0.00164967 -0.0025424 
48 1 1.60521 3.1448 10.5196 -0.00313916 -0.000898792 -0.00210908 
49 1 2.8141 4.41123 8.73499 -0.00119342 -0.00101822 0.00447554 
50 1 2.83083 3.16742 11.4499 0.00604553 -0.00542679 -0.00607645 
51 1 2.8177 1.8579 12.2376 -0.00177962 0.00430108 -0.00829507 
52 1 2.80232 4.32143 12.3242 -0.00175037 -0.000293558 0.000193045 
54 1 0.320023 4.3588 8.7732 -0.00210365 0.00536739 0.0089435 
55 1 1.54327 4.37192 13.1637 0.000376006 -0.00873247 -0.000764499 
56 1 0.293351 4.38416 12.3013 0.0044971 0.00378159 -0.000218837 
57 1 4.10799 1.80852 2.61673 0.000589675 0.00186492 0.0069844 
58 1 6.61448 0.580424 3.49713 0.00466797 -0.00895279 0.00608385 
59 1 4.1645 0.562842 3.5035 0.000521488 -0.0126231 0.0129192 
60 1 5.35873 1.88561 1.7 -4.80523e-06 0 0 
61 1 7.88965 0.527024 4.34312 0.0019314 0.00460908 -0.00119775 
62 1 6.65453 1.8224 6.15117 -0.00224966 0.00666842 -0.0041578 
63 1 5.36807 0.5838 4.3995 -0.00467891 -0.00198226 0.000984143 
64 1 6.58999 0.564929 7.01822 0.00151028 0.000346376 0.00497577 
65 1 4.16707 0.629414 7.02771 0.00304475 -0.00526228 -0.00380425 
66 1 5.41739 1.84291 5.23983 -0.00315589 -0.0020698 -0.00110208 
67 1 7.90789 0.628605 7.94254 -0.00328414 -0.00242106 -0.00184548 
68 1 5.34351 0.600193 7.87873 0.00377334 0.00202974 -0.00659024 
69 1 4.11741 3.06545 3.4729 -0.0163165 0.00299682 -0.00580507 
70 1 5.36631 3.09835 4.28171 0.00149138 0.00298828 0.000378225 
71 1 4.14659 4.37784 6.09436 0.00407235 0.00254417 0.000100725 
72 1 4.17992 1.88926 6.13437 0.000567535 0.0103498 -0.00313404 
73 1 4.10133 3.12374 7.01334 0.00174035 -0.00308163 -0.00995658 
74 1 5.3414 3.13102 7.89509 0.0060278 -0.00209973 -0.00759473 
75 1 6.63405 1.86133 2.59273 -0.00293355 0.00452557 -0.0019192 
76 1 6.63566 4.3563 2.57877 -0.00234977 0.00884941 -0.00419612 
77 1 7.86823 1.88561 1.7 -0.0002024 0 0 
78 1 6.61776 3.05797 3.44268 -0.00216384 -0.000464046 0.0060768 
79 1 7.86822 4.31401 1.70001 -0.00019455 0 0 
80 1 7.86194 3.05759 4.38632 -0.00512836 0.00206367 -0.000793466 
81 1 7.866 1.77044 5.27126 -0.00536655 -0.00832589 0.00303476 
82 1 6.65751 3.1517 7.02428 -0.00582698 0.00242644 0.00334761 
83 1 7.87255 4.35327 5.2529 0.000977486 0.00127047 0.00345482 
84 1 7.85704 3.16568 7.88569 0.0016311 -0.000690071 -0.000150817 
85 1 4.12619 4.35344 2.52242 -0.00390051 0.000323883 0.00168802 
86 1 5.35871 4.31402 1.70001 0.000558492 0 0 
87 1 6.64359 4.36279 6.13782 0.00570135 0.00268439 -0.00306861 
88 1 5.37674 4.40783 5.22231 0.0028663 -0.00469507 -0.00322793 
89 1 4.13009 1.89812 9.61756 0.00141333 0.00199742 0.00420443 
90 1 6.61507 0.600352 10.6249 0.00269761 -0.006269 0.00160601 
91 1 4.09389 0.647901 10.5291 -0.000928534 0.0012382 -0.0032793 
92 1 5.37747 1.88126 8.74061 -0.00719176 0.00132697 -0.00491056 
93 1 7.91515 0.55128 11.4532 0.00374142 0.000260152 0.00176264 
94 1 6.58512 1.86961 13.2574 0.00374456 -0.00853538 -0.00341962 
95 1 5.34644 0.589529 11.4596 -0.00371287 -0.00238712 0.00712934 
96 1 5.31816 1.83785 12.3121 0.00171793 -0.00898235 0.00431475 
97 1 4.10218 3.16946 10.5522 0.000518454 -0.00288905 -0.0029224 
98 1 5.36669 3.13851 11.4586 -0.00495949 -0.00361166 -0.00183374 
99 1 4.07574 4.37454 13.2348 0.00384325 0.0068533 0.00381866 
100 1 4.04491 1.84879 13.158 -0.000988742 0.00503235 0.00286166 
101 1 6.61847 1.83283 9.67895 -0.00162725 -5.06502e-05 0.00164061 
102 1 6.59371 4.36234 9.74638 -0.00477821 -0.00641736 -0.0037634 
103 1 7.87199 1.89499 8.78858 -0.00728225 0.00571862 -0.00236003 
104 1 6.65935 3.06924 10.5828 -0.00372429 0.00269293 -0.00267655 
105 1 7.81763 4.36198 8.75788 -0.000341708 -0.000506038 0.00113614 
106 1 7.86292 3.06541 11.5245 -0.00405555 0.00512114 -0.00342839 
107 1 7.86594 1.8431 12.3963 0.00397367 -0.00173574 0.00405211 
108 1 7.83652 4.36406 12.3528 -0.00383623 -0.000472653 0.00754095 
109 1 4.05871 4.38336 9.63928 0.0022552 -0.000818593 0.00116339 
110 1 5.32251 4.3968 8.79451 -0.000940584 -0.00110667 0.00515422 
111 1 6.6014 4.40027 13.2135 -0.00659771 0.00433255 0.00163913 
112 1 5.38587 4.3831 12.3874 0.00127006 0.0138165 0.00946413 
113 1 1.58283 0.566325 14.0072 0.00102841 -0.00288246 0.000900613 
115 1 2.85147 0.588333 14.9383 -0.000280205 -0.00160737 -0.00308812 
116 1 1.63709 1.8874 16.5924 0.00235756 0.00584483 -0.00771337 
117 1 0.299379 0.588116 14.9094 -0.00281723 -0.000554341 -0.00250458 
120 1 0.344477 1.84265 15.7924 0.00954336 -0.00444648 0.00244172 
125 1 0.306553 3.10881 14.8845 0.00368001 0.00563748 0.00013962 
1854 1 11.6288 11.8954 6.15168 -0.0020204 -0.00477686 0.00795518 
130 1 1.58378 3.1297 14.0524 0.0165934 -0.00752601 -0.00775011 
131 1 2.84698 3.20162 14.9196 0.00227886 0.00256235 -0.00128969 
132 1 2.87345 1.89727 15.7475 0.0057874 -0.00129047 -0.00280327 
134 1 2.85618 4.41306 15.7993 -0.00517463 -0.00852787 -0.00106755 
138 1 1.61598 4.36294 16.6569 0.00645652 -0.000258023 0.00768179 
139 1 0.315616 4.34144 15.784 0.00826639 0.00780279 0.00324113 
145 1 6.59644 0.60711 14.0854 -0.00198669 0.00172691 0.0027526 
146 1 4.0802 0.608873 14.0699 0.00575583 -0.00304563 -0.000854135 
147 1 7.84597 0.66749 15.0098 -0.000704183 0.00927202 -0.00611896 
148 1 5.3667 0.593928 14.9774 0.00130826 0.000278997 -0.0050668 
150 1 5.37834 1.84365 15.8719 0.00364227 0.00932524 0.000468426 
151 1 4.09091 3.09667 14.0868 0.00523536 -0.000647537 0.00348738 
152 1 5.3006 3.11609 15.0203 0.00311329 0.00886209 0.000371731 
153 1 4.11568 4.39405 16.7385 0.00277805 0.000162722 0.00528081 
154 1 4.11379 1.82941 16.7994 0.00461106 0.00485695 -0.00348461 
156 1 6.58885 3.11179 14.1683 -0.00973177 0.000217313 0.00312505 
157 1 7.93072 3.13004 14.9737 -0.000975472 -0.000473401 0.00585976 
158 1 7.92496 1.9554 15.8949 0.00713813 -0.00415761 0.000953072 
159 1 7.86079 4.32335 15.8731 0.00617596 0.00319253 -0.00179089 
160 1 5.38505 4.31749 15.8882 -0.00651912 -0.000979032 -0.00520859 
163 2 6.62493 2.25768 16.6715 0.00280451 -0.00393146 0.00615959 
164 2 6.60613 3.89508 16.73 -0.00277795 0.00139979 -0.002373 
169 1 9.11036 1.8344 2.54322 -0.00424225 0.00229321 -0.00199991 
171 1 9.09218 0.525378 3.43289 0.00325584 0.00357905 -0.00252201 
172 1 10.3876 1.88561 1.7 9.95697e-05 0 0 
175 1 10.3743 0.554951 4.33328 -0.0025021 -0.000797444 -0.000507747 
177 1 9.11165 0.552222 7.03404 -0.00115624 0.00331615 0.00434998 
178 1 10.3709 1.81323 5.23932 0.00737494 -0.00396184 -0.0040137 
180 1 10.4388 0.544613 7.91079 -0.00432648 0.00071245 0.00171298 
181 1 9.09767 3.07867 3.4456 -0.00721476 0.000143379 -0.00258753 
182 1 10.3514 3.09924 4.34119 -0.0051041 0.00166503 -0.00270823 
183 1 9.11843 4.29832 6.11671 -0.00158987 0.00242276 -0.00183583 
184 1 9.08648 1.77029 6.17541 0.000382228 -0.000267986 -0.00543321 
185 1 9.12843 3.07583 7.00026 0.000164046 -0.00105511 -0.00371111 
186 1 10.3638 3.06128 7.89186 0.00362318 -0.0127376 -0.0028935 
197 1 9.11223 4.33498 2.5309 0.00120286 -0.000539887 -0.00103981 
198 1 10.3876 4.31402 1.70001 -0.000128925 0 0 
200 1 10.3808 4.31034 5.22999 -0.00197355 -0.00359296 -0.00362275 
201 1 9.09699 1.8824 9.69719 0.000819447 0.00286296 -0.00323834 
203 1 9.18359 0.578766 10.568 -0.00516481 0.00304516 0.0037403 
204 1 10.3484 1.82934 8.80138 -0.00120442 0.00166473 0.00040507 
207 1 10.3644 0.629787 11.4729 -0.00369107 -0.000814468 -0.00306726 
208 1 10.4215 1.85283 12.3326 -0.00445031 -0.00084524 -0.000296818 
209 1 9.0926 3.08702 10.5869 -0.0043898 0.00855142 -0.00335255 
210 1 10.4225 3.14152 11.4507 -0.00121581 -0.00642838 0.00414147 
211 1 9.16934 4.42286 13.1949 -0.0012377 0.00743587 0.00445678 
212 1 9.14454 1.87954 13.2023 -0.00404137 -0.00668843 -0.00717519 
221 1 9.1187 4.315 9.6333 0.00181983 0.00485663 -0.0025678 
222 1 10.3858 4.30502 8.77917 0.00217316 -0.000344749 -0.0151479 
224 1 10.4004 4.43022 12.32 0.000361 0.0059107 -0.00740426 
282 1 9.16361 0.646087 14.0943 -0.00513075 0.00374492 -0.000548504 
285 1 10.393 0.621212 14.9945 0.00427599 -7.0777e-05 0.00121415 
288 1 10.4089 1.85627 15.8215 -0.00217994 -0.000713987 -0.00976425 
292 1 9.1688 3.12727 14.0745 -0.0038847 0.00241062 0.00404716 
293 1 10.3863 3.10897 14.983 -9.07317e-05 0.000309832 -0.00237078 
294 1 9.16588 4.34863 16.8041 0.014016 -0.00550827 0.00101761 
295 1 9.17698 1.83789 16.7396 0.00846092 -0.00705147 0.00400591 
307 1 10.4033 4.37858 15.8731 0.000856686 0.00309953 -0.00358251 
842 1 1.6257 5.63149 3.43569 -0.00192233 -0.00808951 -0.000107739 
844 1 0.329828 6.91451 1.7 -0.000561235 0 0 
845 1 2.88574 5.67543 4.31907 -0.00569017 -0.00344837 0.00354248 
846 1 1.55982 6.87162 6.08598 -0.00471583 -0.00577876 0.00747031 
847 1 0.364576 5.56967 4.32527 0.00194586 0.00331 0.00724898 
848 1 1.55284 5.61518 6.96279 0.0080993 -0.00169074 -0.000206447 
850 1 0.293221 6.82338 5.23736 -0.0110549 0.000694868 -0.00144686 
851 1 2.79422 5.653 7.87487 -0.000726882 0.00556639 0.00146596 
852 1 0.308994 5.61556 7.84634 -0.000994945 0.000809055 -0.00453509 
854 1 0.308811 8.12289 4.32819 0.00265894 0.00386706 0.00130262 
858 1 0.306587 8.15002 7.88175 0.0109478 -0.00110084 0.00322449 
859 1 1.56314 6.92825 2.5344 0.0032212 0.0117529 0.00321604 
860 1 1.53239 9.35894 2.58526 -0.00356891 0.0063231 0.000157456 
861 1 2.83933 6.91451 1.7 0.000313384 0 0 
862 1 1.57637 8.11196 3.41311 -0.000956391 0.00360921 -0.00160618 
863 1 2.83932 9.34291 1.70001 -0.00036213 0 0 
864 1 2.84298 8.20708 4.35216 0.00852214 -0.00246056 0.00155967 
865 1 2.82515 6.94265 5.22521 7.16854e-05 0.00477738 -0.00164657 
866 1 1.57182 8.11746 6.95345 -0.00573326 -0.000530233 0.00620903 
867 1 2.76779 9.41469 5.24727 0.00155394 0.00683825 0.00451004 
868 1 2.83714 8.15067 7.86432 -0.00123872 -0.00380451 -0.00713747 
870 1 0.329811 9.34292 1.70001 -0.000303809 0 0 
871 1 1.51981 9.40233 6.12004 -0.00148366 0.00508658 -0.00332337 
872 1 0.320466 9.36323 5.24287 0.00504754 -0.00236654 0.00229299 
874 1 1.55389 5.62691 10.5647 0.00367406 0.0057592 0.000470887 
876 1 0.302166 6.91348 8.80229 0.00280837 -0.00141362 0.00247049 
877 1 2.82938 5.63484 11.3985 0.00403629 0.000831417 -0.00331043 
878 1 1.58583 6.88812 13.2316 0.000415911 0.00239591 0.00487212 
879 1 0.291394 5.64746 11.4227 -0.000819606 0.00547983 0.00523592 
880 1 0.330735 6.87326 12.3258 -0.000333089 -0.00137633 0.00137194 
882 1 0.247361 8.16173 11.4447 0.00561317 0.00783468 0.00133046 
885 1 1.58047 6.88034 9.71987 -0.000636048 -0.00839083 0.000962038 
886 1 1.55833 9.39087 9.65545 0.00454676 -0.00255803 0.0020517 
887 1 2.82519 6.92063 8.78229 0.00729214 0.00620616 -0.00123742 
888 1 1.54095 8.12684 10.5674 0.00486664 -0.00563149 -0.00266339 
889 1 2.82387 9.38981 8.764 0.000392282 -0.00300244 0.00817081 
890 1 2.79498 8.13197 11.4211 0.00197676 0.00500942 -0.000470365 
891 1 2.83962 6.90969 12.328 -0.00378489 -0.00278626 0.00892024 
892 1 2.76101 9.40653 12.2807 0.00744283 9.62414e-05 -0.00110202 
894 1 0.244058 9.3664 8.721 0.0130158 0.00316981 0.0103885 
895 1 1.54686 9.43036 13.1943 -0.00370511 0.00181937 0.00664384 
896 1 0.293121 9.44798 12.2724 -0.00473594 -0.0013284 -0.003516 
897 1 4.13796 6.92951 2.59814 0.000942038 -0.00444482 0.00672906 
898 1 6.65955 5.63038 3.48605 -0.00472051 -0.00915114 0.00333393 
899 1 4.15327 5.64084 3.45812 0.010286 0.00379032 0.00136714 
900 1 5.35873 6.91451 1.7 0.000139511 0 0 
901 1 7.88786 5.5751 4.37182 0.0046613 0.00147765 -0.00283414 
902 1 6.64102 6.90307 6.09526 -0.00256386 0.00979722 -0.00207238 
903 1 5.37482 5.6482 4.38354 -0.00678978 0.00276003 0.00228002 
904 1 6.67108 5.63672 7.00513 -0.000716448 0.00912079 0.000948657 
905 1 4.08908 5.66291 7.02547 -0.00426392 0.00745527 -0.00045464 
906 1 5.36342 6.93569 5.20891 -0.00290511 -0.00505942 -0.00503539 
907 1 7.85707 5.62767 7.90623 -0.0011757 -0.00682521 0.00165605 
908 1 5.39717 5.66177 7.86401 0.000541159 0.00408695 -0.00113807 
909 1 4.12314 8.16819 3.53145 -0.00161972 -0.00576317 0.00695161 
910 1 5.36685 8.16148 4.38387 0.00413173 -0.00405016 -0.00113592 
911 1 4.02967 9.44614 6.13996 0.00176329 0.00246244 -0.000797228 
912 1 4.10752 6.93048 6.12978 0.00247413 0.00104682 -0.000255464 
913 1 4.05581 8.20386 7.02086 0.0051767 -0.00359799 -0.00322643 
914 1 5.34145 8.20786 7.89941 -0.00292817 0.00890561 -0.010165 
915 1 6.60818 6.88188 2.59799 -0.00198106 0.00228182 -0.00168288 
916 1 6.62464 9.40772 2.59952 0.00445794 0.00460336 -0.0039277 
917 1 7.86823 6.91451 1.7 -0.000245096 0 0 
918 1 6.65001 8.1678 3.51399 0.000657453 -0.00167295 -0.00187332 
919 1 7.86822 9.34291 1.70001 -0.00039319 0 0 
920 1 7.8663 8.10524 4.34538 -0.00104035 -0.00185362 0.00189891 
921 1 7.8976 6.84227 5.24473 -0.000701557 0.00251516 -0.00272755 
922 1 6.58893 8.11917 7.0107 -0.000485933 -0.00276209 0.00145788 
923 1 7.84737 9.3453 5.26261 -0.000658845 0.0030944 -0.0119315 
924 1 7.81834 8.11777 7.88933 0.00132638 -0.00059636 -0.00417183 
925 1 4.09104 9.38811 2.59915 0.00860478 0.00503339 0.00534137 
926 1 5.35871 9.34292 1.70001 -6.7775e-05 0 0 
927 1 6.60588 9.35805 6.14847 0.00056548 0.00817672 0.00256203 
928 1 5.31776 9.42596 5.25978 -0.0015144 0.00551951 0.00772835 
929 1 4.06879 6.93663 9.59954 -0.00148141 0.00292154 0.00206021 
930 1 6.5856 5.62482 10.5882 -0.000365993 -0.000218868 0.0047567 
931 1 4.08643 5.66975 10.4916 0.00619183 0.00272906 -0.00568098 
932 1 5.3164 6.93122 8.77413 0.00092378 -0.0045128 -0.00173204 
933 1 7.87322 5.59752 11.4536 0.00234596 -0.00468305 -0.00141471 
934 1 6.59993 6.88539 13.2076 0.00621814 -0.00857313 -0.0049361 
935 1 5.32553 5.63381 11.4653 -0.00488787 -0.00231469 -0.00469688 
936 1 5.35493 6.90404 12.3554 0.00444533 0.000340474 0.00790584 
937 1 4.10471 8.16555 10.5189 -0.0025621 0.00260047 0.00423685 
938 1 5.33958 8.16252 11.4561 -0.00148868 -0.00995714 0.00147258 
939 1 4.02803 9.42553 13.19 0.00996977 -0.00402298 0.00236215 
940 1 4.12119 6.84801 13.2145 -0.000389417 -0.00105459 -0.0103866 
941 1 6.56551 6.92288 9.68677 -6.21448e-05 0.00773864 -0.00362885 
942 1 6.55155 9.44725 9.70757 -0.000118587 0.00399531 0.00147388 
943 1 7.89979 6.88935 8.77276 -0.00209573 0.0126027 -0.000214777 
944 1 6.60692 8.17582 10.535 0.00597357 -0.00814236 -0.00368391 
945 1 7.83039 9.40487 8.76572 -0.00100764 0.00769274 0.00345271 
946 1 7.88141 8.13115 11.407 0.00482115 0.00526808 1.84366e-05 
947 1 7.86344 6.86617 12.332 -0.00202029 0.00622475 -0.00478015 
948 1 7.85956 9.3612 12.2905 -0.00107005 0.00115882 -0.0025764 
949 1 4.11457 9.44235 9.6524 -0.00344458 -0.00465305 -0.00436201 
950 1 5.3478 9.46798 8.77881 0.00277235 -0.00789136 0.00101523 
951 1 6.60835 9.39256 13.1954 0.000754888 0.000857866 0.000293196 
952 1 5.31378 9.42075 12.3477 -0.00134773 -0.00467052 0.000977991 
953 1 1.56863 5.61783 14.0609 -0.00173098 0.00395178 0.00238595 
955 1 2.83662 5.67295 14.984 0.00191935 0.00631415 -0.00087237 
956 1 1.5994 6.88698 16.7177 0.00604249 -0.00171565 0.00254099 
957 1 0.319977 5.63108 14.9569 -0.0031979 0.00250414 0.00584765 
960 1 0.31029 6.89712 15.9183 0.00456444 -0.00372313 -0.00710169 
965 1 0.328583 8.1181 14.983 -0.0019609 -0.00157838 -0.00222675 
970 1 1.5879 8.17256 14.0702 -0.0011134 0.00817494 0.00214077 
971 1 2.81481 8.13673 14.9535 0.00953593 0.0088787 0.000542607 
972 1 2.82524 6.96791 15.8445 0.00372497 -0.00302432 -0.00324454 
974 1 2.82481 9.3834 15.8723 0.00574067 0.00170861 -0.00357549 
978 1 1.52868 9.42406 16.6669 0.00568191 0.00518803 0.00528398 
979 1 0.260508 9.43113 15.8558 0.00360029 0.00330656 -0.000265359 
985 1 6.68261 5.66568 14.1085 -0.00266637 -0.00484973 0.00708548 
986 1 4.09882 5.63583 14.1023 0.00466522 -0.00454935 -0.00276838 
987 1 7.85801 5.68131 15.0409 -0.00700842 0.00771871 0.00896605 
988 1 5.40125 5.63103 15.0378 0.00567807 0.00191573 0.0027871 
990 1 5.37711 6.99935 15.8611 -0.00588505 -0.000544625 -0.00361108 
991 1 4.04467 8.11769 14.0293 0.00210967 -0.00422876 -0.00254689 
992 1 5.32863 8.21866 14.9417 0.00369593 -0.00288187 -0.000295816 
993 1 4.07453 9.36379 16.7387 -0.00116633 0.00251474 0.00336985 
994 1 4.10909 6.95536 16.8018 -0.00407479 -0.00788699 0.00588648 
996 1 6.60212 8.14462 14.066 -0.00123848 -0.00162246 0.00814669 
997 1 7.86233 8.13011 14.9403 -0.00108122 -0.000608276 0.00270177 
998 1 7.88264 6.95111 15.9187 -0.00839007 0.00681674 0.00478255 
999 1 7.86529 9.32799 15.8603 0.00503161 0.00734615 0.00826165 
1000 1 5.34434 9.3851 15.8729 0.00119044 -0.00160762 0.00366811 
1003 2 6.66575 7.4011 16.6482 0.00205249 -0.00747762 -0.00518461 
1004 2 6.60571 8.97059 16.6538 -0.000459987 -0.00306294 0.00266475 
1009 1 9.13458 6.91041 2.536 0.000127084 -0.00233154 0.000610007 
1011 1 9.11387 5.59909 3.39131 -0.00346839 -0.00200444 0.00767994 
1012 1 10.3876 6.91451 1.7 9.00029e-05 0 0 
1015 1 10.3503 5.56216 4.36295 0.00328811 -0.00740381 -0.0109182 
1017 1 9.14006 5.5605 7.0048 -0.000788511 0.000354293 -0.00377194 
1018 1 10.3727 6.81517 5.22413 -0.0048266 0.00464585 0.00581986 
1020 1 10.3603 5.55213 7.90495 -0.00185818 -0.000658561 0.00869416 
1021 1 9.10681 8.15562 3.44931 0.00100176 -0.00230922 -0.00175867 
1022 1 10.365 8.07954 4.31719 -0.00573496 -0.00128264 -0.00298524 
1023 1 9.11064 9.3307 6.14885 0.00129642 -0.00454917 0.00305455 
1024 1 9.11489 6.82214 6.1123 -0.00297393 0.00336392 0.00419219 
1025 1 9.10366 8.10515 7.0361 0.00021149 -0.00431361 -0.00326915 
1026 1 10.359 8.09812 7.95096 -0.00321645 0.00313194 -0.00871971 
1037 1 9.09659 9.40897 2.54855 0.0106448 -0.00217257 0.012078 
1038 1 10.3876 9.34292 1.70001 -0.000360157 0 0 
1040 1 10.3514 9.3583 5.25441 0.00182968 0.00488871 0.000452171 
1041 1 9.15153 6.92565 9.67598 -0.000711304 -0.00172778 -0.000849495 
1043 1 9.09935 5.56008 10.5096 -0.000783081 0.0015164 0.00300255 
1044 1 10.4201 6.82834 8.79697 0.0034103 0.000671478 0.00412228 
1047 1 10.4277 5.60728 11.3843 -0.00639952 0.0002555 -0.0102449 
1048 1 10.4465 6.82684 12.3237 -0.00767135 -0.00335771 0.00257089 
1049 1 9.16735 8.11987 10.609 -0.00860115 -0.00524794 -0.000894372 
1050 1 10.4143 8.1341 11.4525 -0.00333263 -0.000760113 0.0029252 
1051 1 9.11296 9.34489 13.1547 -0.0025989 0.00679145 -0.00834121 
1052 1 9.1205 6.81436 13.1764 0.0039785 0.00639008 0.00421986 
1061 1 9.09591 9.36648 9.75729 0.00280948 0.00850071 -0.00464753 
1062 1 10.3503 9.35363 8.88393 -0.00399468 0.0023601 -0.00589841 
1064 1 10.3776 9.3572 12.3138 -0.00359049 0.00229682 -0.00118001 
1122 1 9.16069 5.62367 14.1644 0.00531834 -0.00115854 -0.00457132 
1125 1 10.4181 5.62287 15.0334 -0.00735311 0.00767268 -0.00594339 
1128 1 10.4492 6.89673 15.8771 0.00388357 -0.000147593 -0.0103592 
1132 1 9.13851 8.12577 14.0322 0.00851405 -0.00531921 0.00104253 
1133 1 10.3586 8.13405 14.9554 -0.00547956 -0.00370039 -0.00130787 
1134 1 9.17639 9.34915 16.7842 0.0024477 -0.00481351 1.09919e-05 
1135 1 9.15295 6.86726 16.7514 -0.00380981 -0.00666689 -0.00486303 
1147 1 10.4025 9.40226 15.8713 -0.00380023 0.00221351 -0.00203914 
1682 1 1.58951 10.6406 3.4444 -0.00287491 -0.00866597 -0.0056162 
1684 1 0.329828 11.9434 1.7 0.000135196 0 0 
1685 1 2.84448 10.6558 4.32663 0.00273845 0.00882536 0.0035478 
1686 1 1.54907 11.9217 6.11142 0.00325388 0.00191556 -0.000837668 
1687 1 0.373407 10.6505 4.34568 0.00394826 0.00295199 -0.00207697 
1688 1 1.54643 10.6763 7.02298 -0.00634212 0.00586425 -0.00196981 
1690 1 0.309433 11.8766 5.24429 -0.00532461 -0.00494628 0.00265268 
1691 1 2.84416 10.6807 7.93076 -0.00694346 -0.0024011 -0.00307431 
1692 1 0.246273 10.6534 7.93026 -1.38073e-05 0.00430408 0.00225277 
1699 1 1.575 11.9256 2.54741 0.00299168 0.00571033 0.00162868 
1701 1 2.83933 11.9434 1.7 0.000306683 0 0 
1705 1 2.83533 11.9352 5.18166 0.00844388 0.000621385 0.00161216 
1714 1 1.54563 10.6385 10.4818 0.0124058 -0.00889968 -0.000556809 
1716 1 0.242499 11.9485 8.71195 -0.0038805 0.00248643 0.00471876 
1717 1 2.82409 10.6431 11.4029 -0.00471048 0.00340378 -0.00237494 
1718 1 1.61873 11.9164 13.1842 -0.00242898 0.00169173 -0.000589393 
1719 1 0.322583 10.7331 11.3933 -0.000128313 -0.0010886 -0.00102567 
1720 1 0.317696 11.9457 12.2816 0.00525794 0.00551482 -4.04348e-05 
1725 1 1.61918 11.9055 9.65759 -0.00209492 0.00187914 -0.00367109 
1727 1 2.85188 11.9345 8.77042 0.00237563 -0.00340598 0.00544356 
1731 1 2.86934 11.8902 12.3387 -0.00760524 -0.00285449 -0.0131797 
1737 1 4.14836 11.8914 2.5605 -3.12937e-05 0.00183229 -0.00881671 
1738 1 6.612 10.6546 3.45994 -0.000401517 0.00197819 -0.00239874 
1739 1 4.11835 10.6569 3.44507 0.00663267 -0.00102691 0.0038247 
1740 1 5.35873 11.9434 1.7 0.000456279 0 0 
1741 1 7.85053 10.6378 4.34049 0.00689326 -0.00204933 -0.00433559 
1742 1 6.61953 11.8618 6.16565 -0.00253644 0.0113583 -0.00875223 
1743 1 5.30042 10.6495 4.3507 0.00357778 -0.000910836 -4.06817e-05 
1744 1 6.6228 10.6209 6.96004 -0.00241935 0.000208033 0.000708753 
1745 1 4.11573 10.6703 6.98654 -0.00861574 0.00614963 0.00722963 
1746 1 5.38008 11.9038 5.23188 0.000261237 -0.00418749 0.000777258 
1747 1 7.81392 10.6473 7.91377 0.00260564 -0.00254589 0.00156925 
1748 1 5.37621 10.6881 7.83291 -0.00177923 -0.00586517 0.00815435 
1752 1 4.11904 11.9147 6.13129 -0.00622548 -0.000770163 -0.0120611 
1755 1 6.64046 11.8808 2.55462 -0.00369517 -0.00116363 0.00196257 
1757 1 7.86823 11.9434 1.7 0.000169034 0 0 
1761 1 7.8653 11.8786 5.23782 0.000520804 0.00424761 0.00692678 
1769 1 4.09509 11.9114 9.62594 -0.00196948 -0.00787499 0.00139884 
1770 1 6.57774 10.6833 10.5649 -0.00401643 -0.000752018 -0.00111328 
1771 1 4.08546 10.67 10.5853 0.00177074 -0.000233173 0.00413339 
1772 1 5.3323 11.955 8.74115 -0.000690199 0.00645713 0.00482815 
1773 1 7.8728 10.6308 11.4344 0.00315384 -0.00630082 -0.00533067 
1774 1 6.60674 11.8725 13.173 -0.000631652 -0.0051494 0.00277181 
1775 1 5.31331 10.664 11.4437 6.48621e-05 0.00157859 -0.00158504 
1776 1 5.36974 11.9253 12.3417 -0.00308974 0.00676219 0.00600407 
1780 1 4.12382 11.9636 13.2253 0.00283452 -0.000707988 0.00138004 
1781 1 6.61314 11.9686 9.67333 0.0107875 0.00183932 0.00550559 
1783 1 7.88729 11.8864 8.82931 -0.00185101 -0.00374424 0.000803479 
1787 1 7.89336 11.8568 12.2737 -0.00706969 0.000577404 0.00752856 
1793 1 1.55128 10.6635 14.0688 0.00839197 -0.00252295 -0.00462706 
1795 1 2.79315 10.6818 15.0032 0.00877339 -0.00058142 -0.00271337 
1796 1 1.56096 11.9255 16.6919 0.00142016 0.000957907 -0.00214537 
1797 1 0.249105 10.6646 14.9294 0.00346064 0.00578524 0.00381671 
1800 1 0.254558 11.9482 15.9013 0.00371628 0.00120845 -0.00317944 
1812 1 2.82355 11.907 15.8614 0.00393093 -0.00293097 0.00540197 
1825 1 6.59 10.6435 14.1088 0.000261911 -0.000339762 -0.00635311 
1826 1 4.06537 10.6904 14.1035 -0.00171067 -0.00776924 -0.00362389 
1827 1 7.88696 10.6234 15.003 -0.00391213 0.0102369 -0.00456532 
1828 1 5.35035 10.6419 14.9922 -0.00606229 0.00108434 0.00479464 
1830 1 5.31503 11.9656 15.8119 0.0054344 0.00272801 -0.00185266 
1834 1 4.06317 11.9175 16.7305 -0.000361117 0.00181597 0.00095382 
1838 1 7.90384 11.9164 15.8517 0.00640248 0.00165361 -0.000979899 
1849 1 9.11358 11.9203 2.57242 0.00368189 0.00221896 -1.77707e-05 
1851 1 9.07653 10.679 3.45313 -0.0122081 0.00181788 0.000935232 
1852 1 10.3876 11.9434 1.7 -0.000408362 0 0 
1855 1 10.3659 10.6483 4.35534 -0.000299441 -0.00508504 -0.00358047 
1857 1 9.10924 10.5871 7.08082 -0.00505226 0.00260355 -0.0049274 
1858 1 10.3651 11.8775 5.29113 -0.00111671 -0.00400473 -0.00232847 
1860 1 10.3798 10.6224 7.97434 -0.00293917 0.000136807 -0.00147393 
1864 1 9.10416 11.8431 6.12266 -0.000824791 0.00299981 0.00377494 
1881 1 9.09555 11.9141 9.65949 0.00772726 0.00431309 0.00474227 
1883 1 9.1229 10.6636 10.574 -0.00290143 -0.00717813 -0.0027254 
1884 1 10.3635 11.8908 8.75925 -0.000517217 -0.00654239 -0.00319029 
1887 1 10.4086 10.6436 11.4242 -0.00258766 -0.00177116 -0.00287655 
1888 1 10.3808 11.9575 12.2893 -0.00434261 0.00487353 0.000430211 
1892 1 9.13322 11.9137 13.1328 -0.000275261 0.00256525 0.00275118 
1962 1 9.12107 10.6101 14.0202 -0.00229085 0.000759144 -0.00344367 
1965 1 10.3752 10.6642 14.9602 0.0038978 0.00102234 -0.00403974 
1968 1 10.3701 11.8997 15.8571 0.00461081 -0.00117734 0.0044872 
1975 1 9.13646 11.8914 16.7857 -0.00193092 0.00475989 0.00168371 
1843 2 6.62342 12.2871 16.5793 -0.00567533 0.00426376 0.00317213 
223 1 11.6646 4.31482 13.2267 -0.00811857 -0.00119715 -0.00258846 
1042 1 11.7137 5.62268 10.5572 0.00718375 -0.0047118 -0.0042164 
281 1 11.6193 0.600377 14.1343 -0.00221984 0.00181272 0.00127009 
1010 1 11.6344 5.60255 3.42888 0.00639386 0.00361681 0.000270278 
213 1 11.6101 1.87407 9.67403 0.00179751 0.00312002 0.000476974 
170 1 11.6399 0.592103 3.45625 0.00850164 -0.00116473 -0.000929124 
1124 1 11.6827 6.88709 16.7166 -0.0021588 -0.000986263 -0.00135707 
1039 1 11.565 9.37757 6.10318 9.87312e-05 0.00161751 -0.000286431 
1850 1 11.6089 10.624 3.47802 -0.00312253 -0.00374622 0.00484379 
1027 1 11.6249 6.85159 2.58986 0.00305096 -0.00287965 0.00315642 
1867 1 11.6102 11.8659 2.57475 0.00274322 -0.00222187 -0.00428695 
190 1 11.6785 3.11124 3.43126 0.00256043 -0.00135275 0.000550907 
1063 1 11.6396 9.39759 13.1969 0.000209388 0.000267968 0.00535316 
1856 1 11.6018 10.6164 7.04476 -0.00632107 -0.00643681 -0.000617467 
202 1 11.6296 0.594894 10.5855 -5.20984e-05 0.00274281 -0.00143505 
1138 1 11.6391 8.11419 14.0587 0.00145438 -0.00220661 -0.00509 
1014 1 11.6454 6.84388 6.1378 0.00200503 -0.00292417 -0.0034858 
206 1 11.6139 1.8644 13.2694 0.00498554 -0.00106848 0.0018278 
1054 1 11.6792 9.39953 9.73134 -0.00337303 0.00332321 0.00225717 
188 1 11.6615 4.36417 2.51771 0.00655673 -0.00468502 -0.00625227 
187 1 11.6659 1.89578 2.57847 -0.00489064 0.00588925 0.00377619 
214 1 11.6835 4.38184 9.71089 0.000468344 0.00439463 0.00155741 
199 1 11.653 4.29044 6.16389 -0.00136356 -0.00227106 9.29859e-05 
1046 1 11.6781 6.85762 13.2283 0.000574978 0.00132895 0.00854367 
194 1 11.6406 3.03667 7.01036 -0.000325077 0.00110653 -0.00426056 
298 1 11.6425 3.10169 14.1433 -0.00246209 -0.00146559 0.00152952 
1053 1 11.6946 6.91567 9.63889 -0.00329915 -0.000650704 0.00330517 
1030 1 11.6625 8.12513 3.48348 -6.0886e-05 -0.000221807 0.00196372 
216 1 11.6594 3.16041 10.5561 0.00232521 0.00397449 -0.00086337 
1121 1 11.6941 5.60405 14.1078 -4.1697e-05 0.000508896 0.00187191 
1016 1 11.6443 5.56318 7.02829 -0.00513305 0.00237451 -0.00101577 
1028 1 11.6292 9.36288 2.56164 0.00960346 0.00310461 0.0137661 
1882 1 11.68 10.6635 10.5524 -0.00291538 -0.00136005 0.00055953 
1961 1 11.646 10.6718 14.0977 0.00827072 -0.00281485 -0.00338326 
174 1 11.6276 1.82754 6.09357 -0.00243731 -0.00320744 -0.00569892 
1034 1 11.5922 8.16359 7.01111 -0.000833443 0.00482626 -0.00221373 
1056 1 11.6685 8.15334 10.5965 0.00801581 0.00498202 0.00268116 
1146 1 11.7155 9.41179 16.6811 0.00299269 0.00144055 0.00374625 
1964 1 11.6762 11.973 16.6405 0.0123789 0.00337846 0.000870384 
284 1 11.6677 1.85804 16.7032 0.00536983 0.00196156 -0.000117682 
1893 1 11.6469 11.8799 9.61133 -0.00465005 0.000881209 -0.00303683 
306 1 11.7172 4.37316 16.7389 0.00206914 0.00138148 -0.00557552 
176 1 11.6531 0.581932 6.96093 0.00506088 0.00191993 0.000716593 
1886 1 11.662 11.9368 13.1881 0.0064871 -0.00279567 0.000393717 
3583 1 11.635 24.4439 13.1772 0.00376182 -0.00278243 -0.0068807 
1874 1 11.6099 13.1733 6.96711 -0.00016285 0.00283993 0.00255184 
2694 1 11.6257 16.8882 6.13508 -0.00322527 -0.00280901 -7.92469e-05 
2804 1 11.7153 17.0099 16.6349 -0.00679376 0.000230863 0.00435904 
2714 1 11.6194 18.1555 6.98546 -0.00316584 -0.00482069 0.0027271 
2719 1 11.657 19.4278 6.12831 0.000469428 -0.000640918 0.00574968 
2818 1 11.6277 18.2066 14.0384 0.000403063 0.00204503 -0.00146866 
3550 1 11.6569 23.1971 3.46992 0.00364915 0.000983207 -0.00166241 
2690 1 11.643 15.6824 3.44878 -0.00572096 -0.00260224 -0.00425177 
2733 1 11.635 16.9555 9.6625 0.00129817 -0.00169918 0.00551351 
1894 1 11.6779 14.454 9.62708 0.00361611 0.00478961 0.00226719 
2826 1 11.6178 19.5111 16.6838 0.00965018 0.0023118 -0.00653287 