ITEM: TIMESTEP
45000
ITEM: NUMBER OF ATOMS
20688
ITEM: BOX BOUNDS pp pp pp
0 50.289
0 50.289
0 243.135
ITEM: ATOMS id type xu yu zu vx vy vz 
2 1 0.868169 0.550104 3.50192 0.00523429 -0.00953247 0.00833982 
1059 1 12.1705 6.90873 12.2545 0.00294867 0.000915148 0.00741889 
5 1 2.09189 0.578544 4.3326 0.00108939 0.000754477 0.000442363 
6 1 0.804538 1.81071 6.1255 0.00614033 -0.00657704 0.00230868 
8 1 0.806243 0.6311 7.05342 0.00557043 -0.00333589 0.00210336 
11 1 2.02322 0.653638 7.89772 -0.00838755 -0.000899194 0.00172297 
19 1 0.810999 1.86197 2.58999 -0.000339969 -0.000804715 0.00317653 
20 1 0.802387 4.31025 2.60482 -0.00252682 0.00652588 0.00423574 
21 1 2.08933 1.88561 1.7 -0.00031308 0 0 
22 1 0.823404 3.08179 3.51963 -0.00620526 -0.00013488 0.00407633 
23 1 2.08932 4.31401 1.70001 -0.00023363 0 0 
24 1 2.08698 3.11189 4.32166 -0.00456962 0.000592167 0.00543125 
25 1 2.09212 1.85126 5.23687 0.00322116 -0.00904169 0.00534689 
26 1 0.801403 3.09927 6.96853 -0.0039844 0.00563748 0.000570043 
27 1 2.12279 4.34027 5.21818 0.00291059 0.00412768 -0.00168749 
28 1 2.06184 3.11649 7.89989 0.00513952 0.00074443 -0.00571583 
31 1 0.819339 4.33504 6.06263 0.0102909 0.00355534 0.00345429 
195 1 12.0875 4.38481 5.25596 0.00327008 -0.00427438 -0.00318729 
34 1 0.855757 0.591102 10.54 0.00059568 -0.00075589 -1.75749e-05 
37 1 2.09378 0.586186 11.4442 -0.00138603 -0.00230707 0.00131036 
38 1 0.777341 1.82625 13.2328 -0.00144154 0.00295705 -0.00315442 
219 1 12.1407 1.84164 12.2893 -0.0044651 0.00703062 -0.00259089 
45 1 0.757834 1.90719 9.69232 0.00840865 0.00159653 0.00950059 
46 1 0.889584 4.37602 9.62304 0.00716995 -0.00588836 -0.000541141 
47 1 2.04212 1.88793 8.82078 0.00417373 0.000457225 0.00410665 
48 1 0.845019 3.1514 10.5597 0.0021329 0.00236759 0.00728137 
49 1 2.14917 4.35839 8.75646 0.000613426 -0.00688939 -0.00265758 
50 1 2.10141 3.08558 11.4136 0.00191996 -0.000592083 -0.00175439 
51 1 2.08403 1.83987 12.3328 -0.00752624 0.00124451 0.00557956 
52 1 2.09182 4.3587 12.2634 -0.00155641 -0.0026976 0.00136381 
55 1 0.816763 4.33469 13.1629 0.0019867 0.00995476 -0.00131859 
57 1 3.33171 1.86349 2.57799 0.00557178 0.00256282 0.0028126 
58 1 5.88681 0.541305 3.46518 0.00260932 0.00622825 0.00401262 
59 1 3.36509 0.559541 3.43926 0.00283682 -0.00278502 -0.000460378 
60 1 4.60873 1.88561 1.7 2.08103e-05 0 0 
61 1 7.15889 0.575557 4.31798 0.00122657 -0.00685745 0.0037943 
62 1 5.86159 1.78222 6.12883 -0.00331478 -0.006799 -0.00165998 
63 1 4.58387 0.579075 4.29058 0.00362963 -0.00442211 0.00303545 
64 1 5.84625 0.58364 7.02567 -0.00311175 -0.00493152 -0.000812039 
65 1 3.36606 0.638998 7.01375 -0.0029618 0.00255636 -0.000131775 
66 1 4.63516 1.83156 5.2341 0.00525553 -0.00210653 0.00522041 
67 1 7.10396 0.595688 7.90786 0.00349837 0.00694067 -0.00815099 
68 1 4.60492 0.581696 7.93211 -0.00630045 0.00589785 0.00579211 
69 1 3.3557 3.08359 3.45354 0.00245242 -0.00264004 -0.00477127 
70 1 4.6323 3.09069 4.37966 0.00473136 -0.00335116 0.00296291 
71 1 3.33245 4.30967 6.11468 -0.00259365 -0.00700667 -0.00780166 
72 1 3.37276 1.83889 6.11493 0.00828684 0.000986346 -0.00336145 
73 1 3.32113 3.05854 6.98393 0.00482275 0.000787864 -0.000433189 
74 1 4.54664 3.11041 7.8599 -0.00414184 0.00172128 0.00188828 
75 1 5.89633 1.8523 2.5813 0.00874692 -0.00949135 0.00403413 
76 1 5.85273 4.31595 2.55499 -0.00257245 0.00432208 -0.00327235 
77 1 7.11823 1.88561 1.7 0.000118836 0 0 
78 1 5.84576 3.09894 3.49728 -0.00554591 0.00208138 -0.000777001 
79 1 7.11822 4.31401 1.70001 -0.000277282 0 0 
80 1 7.15708 3.0919 4.31779 0.000140717 -0.00660932 -0.00315191 
81 1 7.17845 1.82464 5.2172 0.00612077 -0.000550584 -0.00725544 
82 1 5.79074 3.09024 7.00919 0.000670797 0.00242875 0.000749027 
83 1 7.15784 4.30182 5.22535 0.00472473 -0.000644982 -0.00434173 
84 1 7.11561 3.07159 7.85784 0.00631143 -0.00355933 -0.00841159 
85 1 3.34184 4.29977 2.60393 0.00724398 0.00226758 0.00764237 
86 1 4.60871 4.31402 1.70001 -0.000430386 0 0 
87 1 5.86845 4.33703 6.0868 -0.0117834 -0.00181646 -0.00361507 
88 1 4.59831 4.30965 5.30089 0.00678924 0.00421583 0.00962322 
89 1 3.29478 1.79535 9.71964 -0.0046887 0.00149626 -0.00721919 
90 1 5.8547 0.608171 10.5673 -0.00138832 0.00144 -0.00108002 
91 1 3.2753 0.556586 10.6063 -0.00906626 -0.00513776 -0.00740707 
92 1 4.55531 1.82 8.79341 0.00189322 1.51287e-05 -0.00468722 
93 1 7.11887 0.570067 11.4318 0.00933128 0.00170119 0.00305851 
94 1 5.80454 1.87387 13.2121 0.000246395 0.0054055 -3.22991e-05 
95 1 4.56724 0.603506 11.4492 -0.0134252 -0.00202255 0.00428925 
96 1 4.607 1.86623 12.3059 -0.00227742 0.00117161 0.00472417 
97 1 3.36633 3.0636 10.533 0.00854835 0.00232649 -0.000602583 
98 1 4.60881 3.07565 11.4231 0.000104973 0.00112829 -0.00274324 
99 1 3.33654 4.38214 13.1572 -0.000292302 -0.00519985 -0.00155434 
100 1 3.3695 1.83748 13.246 -0.00151583 -0.00669532 -0.000320788 
101 1 5.80373 1.86914 9.66967 -0.00328533 0.00645088 0.00776706 
102 1 5.84932 4.34747 9.58845 -0.00478131 -0.000689599 0.00801353 
103 1 7.11924 1.80629 8.77853 0.00384751 -0.00243789 0.00676185 
104 1 5.83771 3.11212 10.4777 -0.000987652 0.000316834 0.000243707 
105 1 7.11056 4.38432 8.69829 0.00706281 0.00393887 0.00444687 
106 1 7.09199 3.04009 11.3884 0.00426669 -0.00286043 0.00622483 
107 1 7.06227 1.82295 12.309 -0.00583808 0.000562942 0.00228034 
108 1 7.05295 4.32248 12.2847 -0.00230173 -0.00416992 -0.00497306 
109 1 3.37576 4.33977 9.63185 -0.000258398 -0.000249277 0.00547626 
110 1 4.61258 4.3347 8.7254 0.00209912 -0.000788905 -0.00249491 
111 1 5.79037 4.35819 13.1787 0.00729415 -0.000641319 0.0047434 
112 1 4.5898 4.34392 12.2671 -0.00360515 -0.00943807 -0.00655696 
113 1 0.79922 0.571552 14.1208 0.00460961 -0.00174706 -0.000432873 
115 1 2.13561 0.579435 15.0014 -0.001336 -0.00392966 -0.00262502 
116 1 0.822219 1.83058 16.7064 -0.00531801 -0.00187545 -0.00373283 
1854 1 10.9275 11.9049 6.11344 -0.00317809 0.000859319 -0.000888783 
130 1 0.827393 3.03451 14.076 0.000567089 -0.00345967 0.00215111 
131 1 2.10735 3.06018 14.9883 -0.00164818 -0.00114114 -0.000536308 
132 1 2.06741 1.84205 15.8633 0.000849265 0.00379143 -0.000186533 
134 1 2.039 4.34611 15.82 0.000199785 0.000744771 -0.000374897 
138 1 0.763481 4.38168 16.6411 -0.00629621 0.000953823 -0.000668108 
145 1 5.84079 0.555738 14.0604 -0.00104801 0.00994936 -0.000760631 
146 1 3.37861 0.579118 14.135 0.0044429 0.00584374 -0.00347662 
147 1 7.10063 0.578485 15.0204 0.00388191 -0.00114902 -0.00910477 
148 1 4.62364 0.539912 15.0523 -0.00616921 -0.00871437 -0.00341284 
150 1 4.59003 1.84963 15.8668 0.00663868 0.00165683 -0.00452471 
151 1 3.34357 3.09426 14.0993 0.00463364 0.00122907 0.00215105 
152 1 4.56141 3.12703 14.9766 -0.000264263 -0.00745074 -0.00544971 
153 1 3.31462 4.34408 16.7814 -0.00218471 0.00778688 0.00396306 
154 1 3.31712 1.81875 16.8423 -0.0104029 -0.00301437 -0.00398726 
156 1 5.81436 3.12926 14.0746 -0.00275878 0.00270005 0.00424125 
157 1 7.21412 3.07118 14.8729 -0.00417884 -0.00943289 0.000583913 
158 1 7.15614 1.84702 15.8437 -0.0020563 0.00115634 -0.00516805 
159 1 7.1639 4.22583 15.8423 0.00386124 -0.00140373 -0.00137161 
160 1 4.56115 4.30674 15.926 0.0100022 -0.0014297 0.0116809 
163 2 5.89154 2.22886 16.6371 0.00392809 -0.00333406 0.00080995 
164 2 5.86615 3.79426 16.67 0.00211048 0.00688283 -0.0048369 
169 1 8.40414 1.79784 2.51083 0.0019084 0.00555352 -0.00241531 
171 1 8.42882 0.580155 3.39837 -0.00259312 0.00351292 0.00320882 
172 1 9.63763 1.88561 1.7 0.00041772 0 0 
175 1 9.67994 0.567619 4.30836 0.000835707 -0.00784741 0.0011656 
177 1 8.43533 0.570976 6.96201 -0.000584332 -0.00325226 0.00358265 
178 1 9.64819 1.87654 5.20376 0.000396474 -0.00181162 0.0020295 
180 1 9.67035 0.571393 7.82998 -0.00369773 -0.000280797 -0.00258797 
181 1 8.35047 3.09248 3.43522 -0.00300444 -0.00357087 -0.00037366 
182 1 9.62766 3.08392 4.38487 -0.00524797 -0.00309858 0.00071121 
183 1 8.34182 4.33353 6.13831 -0.00162693 -0.00539829 0.00121666 
184 1 8.39805 1.82233 6.06264 0.00437905 -0.00232102 -0.00115677 
185 1 8.39047 3.10109 6.95883 -0.00181569 0.00284149 0.00179437 
186 1 9.63631 3.13657 7.88592 8.85667e-05 -0.000248831 -0.00789598 
197 1 8.35605 4.32103 2.54669 0.00555997 -0.00119774 -0.00112987 
198 1 9.63761 4.31402 1.70001 -0.00035314 0 0 
200 1 9.56183 4.33367 5.26313 0.00229352 -0.0041668 0.00235549 
201 1 8.41877 1.82903 9.64678 -0.005207 -0.00802901 0.00141506 
203 1 8.41022 0.617411 10.5416 0.00371996 -0.00878499 0.00443599 
204 1 9.65949 1.83838 8.74677 0.000695293 0.00906424 0.00732593 
207 1 9.66666 0.598263 11.3825 0.0039307 -0.00810119 0.00208869 
208 1 9.58991 1.82599 12.3045 -0.000573985 -0.0102574 -0.00465091 
209 1 8.35327 3.11491 10.5171 0.00181946 0.000335997 -0.00267985 
210 1 9.57628 3.09169 11.4345 -0.0119594 -0.00476319 0.00668463 
211 1 8.32593 4.35757 13.1554 -0.00167961 -0.00187425 -0.00126132 
212 1 8.35408 1.84829 13.164 -0.00138232 -0.00449766 -0.00156075 
221 1 8.28925 4.41067 9.651 -0.00342234 0.00107749 0.00397254 
222 1 9.59445 4.42262 8.74385 -0.0074473 -0.00139561 0.00723153 
224 1 9.56316 4.32456 12.3079 0.00406813 -0.000607027 0.000898886 
282 1 8.37501 0.613486 14.1206 -0.00426215 0.00458794 -0.00250264 
285 1 9.62553 0.628638 14.9883 -0.00188083 -0.00667565 -0.00265107 
288 1 9.65683 1.84857 15.8782 -0.00254181 0.0047472 -0.00272077 
292 1 8.40911 3.12674 13.9659 0.00392279 -0.00226396 0.00146416 
293 1 9.60878 3.10523 14.9044 -0.000760941 0.00503445 -0.0120644 
294 1 8.38082 4.29527 16.752 0.00257551 -0.00374568 -0.00511004 
295 1 8.44744 1.84882 16.7474 -0.00803494 -0.000321302 -0.00415936 
307 1 9.60048 4.29349 15.7841 0.00316806 0.00619414 -0.00236438 
842 1 0.830335 5.63246 3.49595 -0.00699334 -0.00287855 -0.000735492 
845 1 2.09603 5.61949 4.38322 -0.00381033 -0.00506791 -0.00852138 
846 1 0.803405 6.8891 6.07896 -0.0019574 0.00499295 0.00060721 
848 1 0.789327 5.61088 6.99799 -0.0066602 -0.00372381 -0.000644949 
851 1 2.08264 5.61448 7.88147 -0.00090163 -0.00155662 0.00314979 
1060 1 12.1642 9.33084 12.2926 0.000792391 -0.00163734 -0.00154251 
859 1 0.853887 6.86258 2.56251 0.00143301 -0.000433633 -0.00201161 
860 1 0.807532 9.38071 2.57598 0.000723356 -0.00143589 0.00328509 
861 1 2.08933 6.91451 1.7 0.00034419 0 0 
862 1 0.795142 8.10314 3.49533 -0.00529975 -0.0032433 -0.00955547 
863 1 2.08932 9.34291 1.70001 -0.000393031 0 0 
864 1 2.11046 8.08179 4.27396 0.000828624 0.00188764 0.00626618 
865 1 2.08323 6.87501 5.23447 -0.00152523 -0.00139205 -0.00766081 
866 1 0.816001 8.09239 6.97167 0.000966457 -0.00688767 0.00687656 
867 1 2.06597 9.3899 5.18861 -0.0061946 -0.00308101 0.00826038 
868 1 2.07428 8.13366 7.85756 0.00152977 0.000670341 -0.0030401 
871 1 0.86025 9.39369 6.12138 -0.00131832 -0.00106866 0.00665457 
874 1 0.871238 5.65318 10.4924 0.0016048 0.00575326 -0.012059 
1853 1 12.1305 10.6287 4.34505 -0.000195789 0.00800159 0.00162919 
877 1 2.07398 5.60182 11.3912 0.00164884 0.00464568 0.0079173 
878 1 0.820347 6.88841 13.1486 -0.00184144 0.0049071 0.00366462 
885 1 0.801078 6.87335 9.62687 0.00458694 0.00495165 -0.00436772 
886 1 0.848031 9.39969 9.62057 0.00215271 0.00154304 -0.00349066 
887 1 2.08247 6.86836 8.76433 0.00119463 0.00591824 0.000299248 
888 1 0.821011 8.10714 10.4637 -0.0052163 -0.00324594 0.00791367 
889 1 2.10374 9.40749 8.74699 0.00632711 -0.00275621 -0.000359485 
890 1 2.08599 8.1451 11.4118 0.00582755 0.00893376 0.00518973 
891 1 2.08859 6.85576 12.2735 0.00065889 0.00845583 0.00212437 
892 1 2.06176 9.45061 12.3022 -0.000793718 0.000968969 0.0120528 
895 1 0.786717 9.38648 13.1646 0.00269411 0.0113326 -0.00490046 
897 1 3.35073 6.84879 2.59964 -0.00697058 -0.00324821 -0.0031191 
898 1 5.82559 5.57459 3.43667 -0.00162766 0.0107359 -0.00201548 
899 1 3.35182 5.55962 3.4583 -0.00315891 0.00158997 0.00570926 
900 1 4.60873 6.91451 1.7 -0.00014413 0 0 
901 1 7.10554 5.55494 4.31563 -0.00629123 0.00276473 -0.00252751 
902 1 5.87265 6.83492 6.07931 0.00394345 -0.000341449 0.00229322 
903 1 4.64465 5.56525 4.36047 0.00455525 -0.00954071 -0.00367564 
904 1 5.90154 5.58582 6.92456 -0.00185164 0.00291145 -0.000238125 
905 1 3.35769 5.59593 6.97752 -0.000399669 0.00633419 -0.00816608 
906 1 4.63094 6.85751 5.22022 -0.00475806 -0.00350006 -0.00168852 
907 1 7.15332 5.64586 7.83448 0.00304825 -0.00251768 0.00800448 
908 1 4.61643 5.62748 7.85796 -0.000283437 -0.0031722 0.00286753 
909 1 3.35493 8.13901 3.44746 -0.00267537 0.00477919 0.00593212 
910 1 4.61852 8.10394 4.30118 -0.00487678 -0.00513767 -0.00755112 
911 1 3.35083 9.42672 6.05548 0.00538517 -0.00211881 -0.00290803 
912 1 3.33812 6.88604 6.11657 -0.00560116 0.00158435 -0.00116311 
913 1 3.31876 8.15254 6.97368 0.00627168 0.00299891 0.00208338 
914 1 4.55427 8.15013 7.87012 0.00326281 -0.00663405 -0.000417044 
915 1 5.86228 6.86869 2.59004 0.00410196 -0.00144654 0.00795457 
916 1 5.84434 9.39833 2.59753 -0.00170322 0.000490998 0.0021707 
917 1 7.11823 6.91451 1.7 4.48077e-05 0 0 
918 1 5.85955 8.12586 3.5197 -0.00681611 0.00164474 -0.000385861 
919 1 7.11822 9.34291 1.70001 -0.000210241 0 0 
920 1 7.16045 8.10423 4.36927 -0.000267325 0.00200116 -0.00439819 
921 1 7.09933 6.84743 5.19577 -0.00458814 0.00173095 0.000455084 
922 1 5.82462 8.14197 6.98383 -0.00677437 -0.00405211 0.00120469 
923 1 7.13211 9.40271 5.25631 -0.000421234 -0.000864735 0.00105674 
924 1 7.10823 8.1307 7.81868 0.00129527 0.00348138 0.00108363 
925 1 3.35341 9.36147 2.52303 0.00354985 0.00378616 0.000839514 
926 1 4.60871 9.34292 1.70001 0.000144972 0 0 
927 1 5.86429 9.40873 6.14484 -0.00704794 -0.00149352 0.00345988 
928 1 4.62808 9.38183 5.15285 -0.00744431 0.00525524 0.000799864 
929 1 3.34083 6.84783 9.63579 -0.00332572 -0.00432348 -0.00346502 
930 1 5.82936 5.57501 10.4966 -0.0021949 -0.00354489 0.00930757 
931 1 3.36858 5.5945 10.4952 -0.00537015 -0.00210512 -0.00562686 
932 1 4.6137 6.85014 8.7363 -0.0026714 0.000177588 0.00426973 
933 1 7.06182 5.58609 11.3918 -0.000185508 -0.00444329 -0.00209797 
934 1 5.79706 6.82642 13.2728 -0.00949077 -0.00659261 -0.00954486 
935 1 4.56714 5.56838 11.3884 -0.00796169 0.00131117 -0.000288802 
936 1 4.59863 6.84533 12.3112 0.00438561 0.00823482 0.000367124 
937 1 3.31288 8.12027 10.5733 -0.00654077 -0.00156801 -0.00552611 
938 1 4.61514 8.13764 11.4444 -0.00122209 -0.00334433 -0.000547123 
939 1 3.32929 9.40221 13.1728 0.00277444 0.000445672 0.00767192 
940 1 3.37727 6.82849 13.2291 -0.0032575 0.00120369 -0.00392448 
941 1 5.83306 6.87729 9.65534 -0.00174162 0.00731272 0.00726046 
942 1 5.85494 9.30174 9.62382 0.000131354 -0.00600438 -0.00235938 
943 1 7.11095 6.89305 8.72694 0.00468075 -0.00475412 0.00793087 
944 1 5.89193 8.07718 10.5642 -0.00521305 -0.00247796 0.000818436 
945 1 7.1367 9.38572 8.73357 -0.00116365 -0.00145587 -0.00632247 
946 1 7.1339 8.093 11.4388 -0.00418428 0.00986678 0.00563028 
947 1 7.0524 6.87785 12.3362 -0.00116469 0.00262895 0.00289692 
948 1 7.17925 9.34878 12.3077 0.00337928 0.00205313 0.00689115 
949 1 3.33753 9.37483 9.64794 -0.00201193 -0.00800135 -0.00224905 
950 1 4.60553 9.3825 8.77245 -0.0042024 -0.00577726 -5.01208e-05 
951 1 5.89552 9.35627 13.1882 0.00428337 -0.00494221 -0.00103245 
952 1 4.61343 9.41657 12.2893 -0.0023227 -6.53216e-05 -0.0035817 
953 1 0.862716 5.55699 14.0774 -0.00131122 0.000578262 0.00272079 
955 1 2.09958 5.5634 14.9063 -0.0011563 -0.00510284 0.00186891 
956 1 0.835036 6.88222 16.5945 2.42028e-05 0.00582558 -0.00749864 
970 1 0.805049 8.15787 14.0615 -0.00178433 -0.00145039 0.00189805 
971 1 2.10166 8.14792 14.9086 -0.00338934 -0.00233683 0.01095 
972 1 2.12968 6.87018 15.7656 0.00623907 -0.00458574 0.00510937 
974 1 2.06895 9.37544 15.8399 0.00775385 0.00981608 0.00549032 
978 1 0.806037 9.42755 16.6436 -0.00911371 0.00542173 0.00573239 
985 1 5.83026 5.57633 14.0947 -0.0011545 0.00338052 -0.00233185 
986 1 3.37762 5.60529 14.1095 0.000695276 0.00369531 -9.34075e-05 
987 1 7.07946 5.5816 15.0257 -0.00728351 0.00287837 -0.000929373 
988 1 4.67859 5.60286 15.0464 0.00338829 -0.00076377 -0.00612243 
990 1 4.60789 6.95229 15.8669 -0.00113704 -0.00289054 0.00449409 
991 1 3.30389 8.11691 14.0435 -0.000515992 -0.0107354 0.00493235 
992 1 4.50634 8.13989 14.9442 -0.00442404 -0.000558712 0.00567114 
993 1 3.261 9.40269 16.7716 -0.00540454 -0.00488533 0.000103201 
994 1 3.3496 6.91934 16.7282 0.00494184 -0.00153696 0.00472191 
996 1 5.81804 8.10453 14.1184 -0.00212955 -0.00690552 0.000962651 
997 1 7.17388 8.12021 14.9495 -0.0016775 -0.000342078 -0.00447945 
998 1 7.12585 6.88006 15.8606 -0.00463627 0.00565422 -0.00809759 
999 1 7.12987 9.31254 15.882 0.0080489 0.00954144 0.000193502 
1000 1 4.54298 9.31391 15.9177 0.0010065 -0.00741919 0.00232286 
1003 2 5.84492 7.29652 16.6937 0.000143421 -0.00358911 0.008557 
1004 2 5.83278 8.91619 16.7198 -0.00104541 0.00471655 0.00085255 
1009 1 8.38219 6.85193 2.59701 0.00193299 0.00686039 -0.00902322 
1011 1 8.39294 5.58758 3.43979 -0.0010971 0.00574485 0.00733025 
1012 1 9.63763 6.91451 1.7 -7.79227e-06 0 0 
1015 1 9.59151 5.5767 4.38029 -0.00449778 0.000568609 0.000586948 
1017 1 8.4089 5.61186 6.96061 0.00885513 0.00138369 0.001038 
1018 1 9.65816 6.90781 5.19036 0.0022947 0.000240138 -0.000450003 
1020 1 9.63356 5.62352 7.83939 0.00627902 -0.0029664 0.000969631 
1021 1 8.32861 8.13599 3.47456 0.00313447 -0.00121757 -0.00255464 
1022 1 9.60546 8.15891 4.33783 -0.0069404 -0.00523889 0.0024511 
1023 1 8.37786 9.40705 6.12948 0.000537255 -0.00381912 0.0102608 
1024 1 8.39179 6.85441 6.06648 -0.000499921 0.000264648 -0.00260392 
1025 1 8.36923 8.13488 6.93027 -0.00454677 0.00842859 0.00164005 
1026 1 9.56057 8.10612 7.8695 -0.00287043 -0.00121215 0.000128499 
1037 1 8.37464 9.34149 2.58451 -0.0110176 0.00377931 0.00203478 
1038 1 9.63761 9.34292 1.70001 -4.57842e-05 0 0 
1040 1 9.62487 9.40392 5.21157 -0.0115834 0.00634171 0.000142225 
1041 1 8.39523 6.86418 9.65317 0.0138904 0.00885991 0.000758824 
1043 1 8.30446 5.63451 10.5184 0.00760553 0.00422422 -0.00288184 
1044 1 9.64077 6.87403 8.7466 -0.00558105 0.00338531 0.00515129 
1047 1 9.58298 5.60568 11.382 -0.00631558 -0.00570715 -0.00727669 
1048 1 9.64686 6.8672 12.2971 -0.00401972 -0.000477187 0.00432663 
1049 1 8.3949 8.09626 10.5488 0.00066998 0.00290473 0.00183887 
1050 1 9.6542 8.11683 11.388 -0.00615598 -0.000964911 -0.00479847 
1051 1 8.37079 9.38643 13.2035 0.0028599 0.000735073 0.000783341 
1052 1 8.34034 6.85801 13.129 -0.00127714 0.00645307 -0.00268925 
1061 1 8.37419 9.33906 9.64259 -0.00217743 -0.00353789 0.00289814 
1062 1 9.59156 9.32942 8.73877 -0.000838579 -0.0020101 -0.00349687 
1064 1 9.61621 9.38359 12.2379 -0.00675516 0.00932358 0.000960875 
1122 1 8.29801 5.57571 14.0424 -0.000793291 0.0047847 -0.00430071 
1125 1 9.58054 5.55901 14.9041 -0.000275873 -0.00151137 0.00760265 
1128 1 9.63472 6.85031 15.7974 0.000860859 0.00421898 0.00127075 
1132 1 8.39176 8.07483 14.006 0.00139574 -0.0021958 0.0070391 
1133 1 9.53059 8.09213 14.9498 -0.00375091 -0.00420868 -0.0117867 
1134 1 8.37848 9.30721 16.7391 0.000548399 -0.00507197 -0.00480491 
1135 1 8.40464 6.82171 16.743 -0.00799687 -0.00786639 0.00100019 
1147 1 9.54885 9.38885 15.7886 0.00158965 0.00307824 -0.00313568 
1682 1 0.830459 10.6167 3.47654 0.0015525 -0.00421338 -0.000359243 
1685 1 2.09816 10.664 4.3075 -0.00167094 -0.0014582 -0.0061911 
1686 1 0.807563 11.9052 6.12857 0.00527646 0.000302667 -0.00623895 
1688 1 0.866225 10.6815 6.99036 -0.00116762 0.00726431 0.0012819 
1691 1 2.08461 10.6557 7.89026 0.00290633 -0.00906536 0.00559949 
1699 1 0.855118 11.8959 2.58147 0.00525906 0.000615294 -0.00378769 
1701 1 2.08933 11.9434 1.7 -8.81384e-05 0 0 
1705 1 2.09545 11.9148 5.22669 0.000601862 -0.0034649 0.00692883 
1714 1 0.841483 10.6895 10.545 -0.00532234 0.00441368 0.00187253 
1717 1 2.10787 10.6693 11.3916 -0.00175219 -0.000210593 0.0025159 
1718 1 0.843634 11.8564 13.2163 0.00254786 -0.00244033 0.000705199 
1725 1 0.824919 11.9296 9.63085 0.0100099 0.00280134 -0.00281825 
1727 1 2.08323 11.9096 8.75026 -0.00567161 0.0116935 -0.00472119 
1731 1 2.08228 11.8858 12.3278 0.00109513 -0.00145408 0.00731445 
1737 1 3.36721 11.8986 2.50654 0.000866832 -0.0074704 0.000700274 
1738 1 5.86256 10.6454 3.48136 0.00172931 0.00168306 -0.00406961 
1739 1 3.37422 10.6192 3.41253 -0.00221294 -0.00547768 0.000121586 
1740 1 4.60873 11.9434 1.7 0.000206767 0 0 
1741 1 7.10898 10.716 4.35286 0.00255307 0.00193951 0.0059086 
1742 1 5.85031 11.9249 6.15994 0.00184121 -0.00445084 0.00178335 
1743 1 4.61229 10.6351 4.31909 0.00162047 -0.00157757 -0.00189499 
1744 1 5.89865 10.6612 7.02352 -0.00445951 -0.00250319 -0.00330464 
1745 1 3.36541 10.6499 6.99998 -0.000307537 0.00195092 0.00656648 
1746 1 4.62829 11.9186 5.26335 0.00209872 -0.00532129 -0.00307189 
1747 1 7.17674 10.6546 7.87318 -0.00152779 0.00649127 0.000603235 
1748 1 4.63999 10.6867 7.87054 0.00637746 -0.000990935 0.00341104 
1752 1 3.35624 11.9208 6.15767 0.00919579 -0.00800883 -0.00129335 
1755 1 5.82534 11.8739 2.59485 0.00450523 0.00533221 0.00500212 
1757 1 7.11823 11.9434 1.7 -0.000456794 0 0 
1761 1 7.14155 11.9605 5.29346 -0.00379343 0.00712603 0.0032655 
1769 1 3.3489 11.8891 9.61441 -0.00313173 -0.00543186 7.55577e-05 
1770 1 5.9194 10.6001 10.556 -0.000807781 0.000326943 -0.000267327 
1771 1 3.38303 10.6237 10.4949 -0.00431789 0.00127074 0.00117576 
1772 1 4.63517 11.8866 8.72969 -0.00643171 0.0115782 -0.00383638 
1773 1 7.18475 10.6375 11.4303 0.00413852 -0.0068616 -0.00190722 
1774 1 5.86459 11.8262 13.2659 -0.00316116 0.00431347 0.00353661 
1775 1 4.63852 10.677 11.4509 0.00206963 -0.00241078 0.0024202 
1776 1 4.56745 11.8766 12.3612 -0.00947884 0.00754086 0.00124508 
1780 1 3.3395 11.8772 13.2121 -0.00471047 0.00100629 0.00167798 
1781 1 5.87801 11.874 9.64869 -0.00147959 -0.0035397 0.0017529 
1783 1 7.14828 11.9173 8.80256 0.00606404 0.00581978 -0.00162353 
1787 1 7.06021 11.8831 12.307 -0.00219489 0.00264424 0.0043235 
1793 1 0.870082 10.6368 14.0473 0.0120306 0.00713292 -0.00611342 
1795 1 2.08195 10.6686 14.9851 -0.00657531 0.0107185 0.00685293 
1796 1 0.80793 11.9755 16.6967 0.0103239 -0.00825031 -0.00414569 
1812 1 2.10598 11.9271 15.8751 0.000106632 -6.97375e-05 -0.000196396 
1825 1 5.8474 10.5546 14.1854 0.0054523 0.000931585 0.000549426 
1826 1 3.33566 10.6005 14.1223 -0.00896735 0.00346439 0.000456582 
1827 1 7.11433 10.6254 15.0526 0.00282683 0.000114263 0.0030053 
1828 1 4.54797 10.5914 15.0639 -0.00744278 0.0098632 -0.00218451 
1830 1 4.59078 11.8874 15.8806 0.000143502 0.00382382 -0.00141383 
1834 1 3.33041 11.9148 16.8079 -0.000478035 -0.00481018 -0.00602135 
1838 1 7.15426 11.9057 15.8716 0.0056148 0.00140401 0.00150741 
1849 1 8.37646 11.8861 2.55163 -0.000796901 -0.00429609 0.00518179 
1851 1 8.4187 10.6778 3.4987 0.000976554 -0.00116064 -0.00200239 
1852 1 9.63763 11.9434 1.7 -0.000131282 0 0 
1855 1 9.66822 10.6713 4.35808 -0.00556826 -0.00272322 0.0010129 
1857 1 8.44651 10.6369 7.02359 0.00306905 -0.00471281 0.00118474 
1858 1 9.68125 11.9221 5.26744 -0.00221863 -0.00471277 0.000469868 
1860 1 9.69547 10.5958 7.92343 0.00868563 0.000608673 -0.00816579 
1864 1 8.4297 11.8817 6.14185 -0.00118569 0.00519631 0.0056519 
1881 1 8.37855 11.8921 9.69578 -0.00226597 4.0534e-05 -0.00152564 
1883 1 8.37227 10.6058 10.4911 -0.00323911 0.00424081 0.0013461 
1884 1 9.63711 11.8677 8.81833 0.00500343 0.00387967 0.00567492 
1887 1 9.61175 10.6331 11.318 0.00121451 -0.000343471 0.00120451 
1888 1 9.62546 11.8531 12.2414 0.00351949 0.00571332 -0.00258664 
1892 1 8.34309 11.8798 13.1689 -0.00391662 0.00513115 0.00188216 
1962 1 8.2991 10.6299 14.13 -0.00185061 -0.00364456 0.00281405 
1965 1 9.60693 10.6341 14.987 0.00934671 -0.00136071 0.00907816 
1968 1 9.64373 11.8701 15.8792 0.0122501 0.00412659 -0.00368971 
1975 1 8.42124 11.8219 16.7912 -0.0021716 0.00382421 0.000609811 
1843 2 5.83019 12.269 16.6484 0.0108994 0.00186207 0.00409848 
223 1 10.8628 4.38788 13.1458 -0.00313258 -0.00539613 -0.00361919 
1042 1 10.8612 5.61045 10.4745 -0.0037835 -0.00692 0.0038705 
281 1 10.8755 0.591864 14.0654 0.00974788 -0.00422099 0.00353592 
1010 1 10.8736 5.58539 3.49022 0.00461104 -9.40025e-05 -1.45544e-05 
213 1 10.9293 1.82268 9.63373 0.000950822 0.00023529 -0.00409469 
170 1 10.923 0.569411 3.41752 0.0074319 0.000360687 0.00522922 
1124 1 10.9097 6.81164 16.6183 -0.0020553 0.00169196 -0.00314316 
1039 1 10.9045 9.36827 6.08811 -0.00827131 -0.00134146 0.00399358 
1850 1 10.8881 10.7358 3.43736 0.000279445 -0.00346116 -0.00557866 
1027 1 10.8983 6.86877 2.60186 -0.00146668 0.00507692 -0.00445173 
1867 1 10.8967 11.97 2.53705 -0.0077304 0.00373469 0.00428458 
190 1 10.9087 3.08093 3.46703 -0.000313878 -0.00132219 -0.00645996 
1063 1 10.8762 9.36727 13.1364 -0.00665564 7.46249e-05 -4.4733e-05 
1856 1 10.97 10.6271 6.99256 0.0078948 -0.00365964 -0.00208191 
202 1 10.9356 0.634159 10.5602 -0.00578239 -0.00244782 -0.00648774 
1138 1 10.8137 8.11333 14.0649 -0.00116515 0.00627091 0.00748963 
1014 1 10.9132 6.88882 6.11839 0.00315018 0.00312592 -0.000406988 
206 1 10.8751 1.82255 13.1345 -0.00053352 -0.00289436 -0.000367881 
1054 1 10.8784 9.39255 9.53431 -0.00273468 0.0036609 0.00149701 
188 1 10.8546 4.32637 2.58549 -0.002645 -0.000808704 0.00128555 
187 1 10.9034 1.86037 2.55524 -0.000371013 0.00137509 -0.00226876 
214 1 10.8657 4.36209 9.57905 0.00358345 0.00545855 -0.00266355 
199 1 10.8438 4.36818 6.17408 0.00147779 -0.0120262 -0.000530507 
1046 1 10.8967 6.86365 13.1942 0.000928866 0.00495831 -0.0021837 
194 1 10.9426 3.08119 7.02947 0.00513716 0.00850094 0.00225631 
298 1 10.8516 3.14351 14.0205 0.00489513 0.00895173 0.000663128 
1053 1 10.8795 6.84294 9.5742 0.00103577 -0.00158556 0.00180759 
1030 1 10.868 8.1458 3.46564 0.00343539 0.00526286 -0.00879163 
216 1 10.8709 3.07602 10.5348 -0.00012135 0.00669607 -0.00351933 
1121 1 10.8877 5.57618 14.0843 0.00308605 0.00657292 0.00333315 
1016 1 10.8538 5.6085 6.99218 -0.00750423 0.000877538 -0.00209588 
1028 1 10.8924 9.39042 2.58967 0.00336112 -0.000723526 0.00163711 
1882 1 10.9069 10.6258 10.4408 -0.000386581 0.00120392 -0.00625187 
1961 1 10.9158 10.5735 14.0558 -0.00472399 0.00671394 0.00270854 
174 1 10.886 1.80311 6.0962 0.000715409 -0.00498941 0.00569382 
1034 1 10.8131 8.13578 7.03472 -0.00357155 0.000200042 -0.00457158 
1056 1 10.8984 8.12473 10.4881 0.00357277 -0.00158725 0.00287091 
1146 1 10.82 9.34488 16.5944 -0.0076192 0.000681306 0.00118644 
1964 1 10.93 11.8778 16.7116 0.00205207 0.00828016 0.0070981 
284 1 10.9194 1.83227 16.6926 -0.000861362 -0.00709167 0.00215087 
1893 1 10.8896 11.9332 9.66566 0.00175439 -0.00031342 -0.000882697 
306 1 10.85 4.3123 16.6155 0.00080171 0.0026325 0.00423002 
176 1 10.9044 0.549158 6.97764 -0.00265686 -0.00336459 -0.00210994 
1886 1 10.8431 11.886 13.1971 -0.0112578 -0.00440863 -0.00342201 
1859 1 12.1682 10.6844 7.89049 0.00396075 -0.00523925 -0.00794444 
179 1 12.1 0.568031 7.8584 0.0014517 0.00451477 0.000943761 
1033 1 12.1396 6.82337 5.21583 0.000858915 0.00782067 0.000808598 
191 1 12.1471 4.31401 1.70001 -0.000451528 0 0 
1869 1 12.1471 11.9434 1.7 0.00019171 0 0 
1029 1 12.1471 6.91451 1.7 0.000190001 0 0 
189 1 12.1471 1.88561 1.7 -9.90238e-05 0 0 
1123 1 12.1754 5.6175 14.9384 0.00743204 -0.000833763 0.00284551 
1031 1 12.1471 9.34291 1.70001 -0.000106394 0 0 
192 1 12.1387 3.09716 4.35191 -0.000715546 -0.00258454 0.00422902 
1963 1 12.1447 10.5512 14.9995 -0.00688454 0.0014435 -8.11276e-05 
1885 1 12.1427 10.6136 11.4085 -0.00341147 -0.00260723 7.62815e-05 
1013 1 12.1468 5.57806 4.31487 -0.00271136 -0.00264266 0.00256386 
1019 1 12.1416 5.6297 7.88426 0.00638749 -0.00253675 0.00348077 
1057 1 12.1685 9.38209 8.7206 -0.00959212 0.00599925 -0.000537702 
1032 1 12.1427 8.08514 4.33561 0.00517889 -0.00145825 0.00216611 
1873 1 12.1563 11.8839 5.22673 -0.00636542 -0.00153171 -0.00159805 
220 1 12.1114 4.35397 12.2532 -0.00307053 0.00775917 -0.00290375 
299 1 12.105 3.11293 14.908 0.00473484 0.0064516 -0.00401008 
217 1 12.158 4.37617 8.73866 -0.00343235 0.00189826 0.00232633 
173 1 12.1802 0.6119 4.33107 0.00443913 0.00941728 -0.00504933 
218 1 12.12 3.12531 11.4531 -0.0013275 0.000185017 0.00389685 
193 1 12.1073 1.81675 5.21673 -0.00291852 -0.00282376 -0.00147924 
1055 1 12.1659 6.8556 8.74083 0.00961806 -0.00923055 0.000436772 
205 1 12.1239 0.596867 11.4086 -0.00771766 -0.00354231 0.00255078 
215 1 12.1531 1.84496 8.78143 0.000661803 0.00471361 0.00210791 
196 1 12.169 3.14746 7.86749 -0.00105843 -0.00103254 0.00175325 
302 1 12.1082 4.33677 15.8043 -0.0109507 -0.00391846 -0.00641396 
1142 1 12.1058 9.31011 15.7873 0.00164229 0.000929576 0.00315627 
1058 1 12.1445 8.15343 11.3535 0.00186716 0.00658779 -0.00132415 
1899 1 12.1569 11.876 12.3113 0.00787967 -0.00242935 -0.00212696 
1036 1 12.1237 8.14333 7.83941 0.00253744 -0.00349415 -0.00222426 
1980 1 12.1696 11.9154 15.8567 0.00181512 0.00191946 0.000334973 
300 1 12.1304 1.84138 15.8199 -0.00501299 -0.00923246 0.00160691 
1045 1 12.1348 5.62797 11.3501 -0.00441744 0.00429794 0.000443995 
1139 1 12.1179 8.08385 14.9305 0.00232691 0.000815 -0.00268281 
1895 1 12.1301 11.9713 8.80182 -0.00390688 -0.000621754 0.00613446 
1035 1 12.1689 9.34822 5.22115 0.00853719 0.00317725 -0.00228301 
1140 1 12.1291 6.84497 15.8044 0.00167373 -0.00622612 0.00664314 
283 1 12.1338 0.596222 14.9552 0.00321779 0.000539838 -0.00393874 
2803 1 12.1651 15.6765 14.9818 -0.00551396 -0.00601913 -0.00162831 
2819 1 12.1063 18.1394 14.929 -0.00110167 0.00562351 -0.000647263 
3579 1 12.1639 21.9507 12.2757 0.00298208 0.00967628 0.00523959 
1898 1 12.1822 13.1391 11.462 0.00398768 -0.00121209 0.00300105 
3578 1 12.1592 23.1955 11.4358 0.00932093 -0.00189881 0.00137304 
3556 1 12.1899 23.1786 7.87068 0.00558577 0.0026827 -0.00339636 
2740 1 12.0983 19.3512 12.2623 -0.00210688 0.00509409 -0.00720036 
1875 1 12.1906 14.406 5.21239 0.00130305 0.00583402 -0.00223325 
3662 1 12.1695 24.5323 15.8973 0.00713069 0.00738498 -0.0107701 
1979 1 12.1106 13.1534 14.927 -0.00262786 -0.00489249 -0.00509006 
1897 1 12.1209 14.3878 8.74173 -0.00477614 -0.00648837 -0.00249561 
1872 1 12.1686 13.1916 4.3661 0.00712517 0.00398838 0.00490546 